 Entering Gaussian System, Link 0=g16
 Initial command:
 /apps/gaussian/g16c01/g16/l1.exe "/jobfs/55879119.gadi-pbs/Gau-1033211.inp" -scrdir="/jobfs/55879119.gadi-pbs/"
 Entering Link 1 = /apps/gaussian/g16c01/g16/l1.exe PID=   1033212.
  
 Copyright (c) 1988-2019, Gaussian, Inc.  All Rights Reserved.
  
 This is part of the Gaussian(R) 16 program.  It is based on
 the Gaussian(R) 09 system (copyright 2009, Gaussian, Inc.),
 the Gaussian(R) 03 system (copyright 2003, Gaussian, Inc.),
 the Gaussian(R) 98 system (copyright 1998, Gaussian, Inc.),
 the Gaussian(R) 94 system (copyright 1995, Gaussian, Inc.),
 the Gaussian 92(TM) system (copyright 1992, Gaussian, Inc.),
 the Gaussian 90(TM) system (copyright 1990, Gaussian, Inc.),
 the Gaussian 88(TM) system (copyright 1988, Gaussian, Inc.),
 the Gaussian 86(TM) system (copyright 1986, Carnegie Mellon
 University), and the Gaussian 82(TM) system (copyright 1983,
 Carnegie Mellon University). Gaussian is a federally registered
 trademark of Gaussian, Inc.
  
 This software contains proprietary and confidential information,
 including trade secrets, belonging to Gaussian, Inc.
  
 This software is provided under written license and may be
 used, copied, transmitted, or stored only in accord with that
 written license.
  
 The following legend is applicable only to US Government
 contracts under FAR:
  
                    RESTRICTED RIGHTS LEGEND
  
 Use, reproduction and disclosure by the US Government is
 subject to restrictions as set forth in subparagraphs (a)
 and (c) of the Commercial Computer Software - Restricted
 Rights clause in FAR 52.227-19.
  
 Gaussian, Inc.
 340 Quinnipiac St., Bldg. 40, Wallingford CT 06492
  
  
 ---------------------------------------------------------------
 Warning -- This program may not be used in any manner that
 competes with the business of Gaussian, Inc. or will provide
 assistance to any competitor of Gaussian, Inc.  The licensee
 of this program is prohibited from giving any competitor of
 Gaussian, Inc. access to this program.  By using this program,
 the user acknowledges that Gaussian, Inc. is engaged in the
 business of creating and licensing software in the field of
 computational chemistry and represents and warrants to the
 licensee that it is not a competitor of Gaussian, Inc. and that
 it will not use this program in any manner prohibited above.
 ---------------------------------------------------------------
  

 Cite this work as:
 Gaussian 16, Revision C.01,
 M. J. Frisch, G. W. Trucks, H. B. Schlegel, G. E. Scuseria, 
 M. A. Robb, J. R. Cheeseman, G. Scalmani, V. Barone, 
 G. A. Petersson, H. Nakatsuji, X. Li, M. Caricato, A. V. Marenich, 
 J. Bloino, B. G. Janesko, R. Gomperts, B. Mennucci, H. P. Hratchian, 
 J. V. Ortiz, A. F. Izmaylov, J. L. Sonnenberg, D. Williams-Young, 
 F. Ding, F. Lipparini, F. Egidi, J. Goings, B. Peng, A. Petrone, 
 T. Henderson, D. Ranasinghe, V. G. Zakrzewski, J. Gao, N. Rega, 
 G. Zheng, W. Liang, M. Hada, M. Ehara, K. Toyota, R. Fukuda, 
 J. Hasegawa, M. Ishida, T. Nakajima, Y. Honda, O. Kitao, H. Nakai, 
 T. Vreven, K. Throssell, J. A. Montgomery, Jr., J. E. Peralta, 
 F. Ogliaro, M. J. Bearpark, J. J. Heyd, E. N. Brothers, K. N. Kudin, 
 V. N. Staroverov, T. A. Keith, R. Kobayashi, J. Normand, 
 K. Raghavachari, A. P. Rendell, J. C. Burant, S. S. Iyengar, 
 J. Tomasi, M. Cossi, J. M. Millam, M. Klene, C. Adamo, R. Cammi, 
 J. W. Ochterski, R. L. Martin, K. Morokuma, O. Farkas, 
 J. B. Foresman, and D. J. Fox, Gaussian, Inc., Wallingford CT, 2019.
 
 ******************************************
 Gaussian 16:  ES64L-G16RevC.01  3-Jul-2019
                19-Aug-2022 
 ******************************************
 %NProcShared=48
 Will use up to   48 processors via shared memory.
 %mem = 190GB
 %Chk=check_tsf6
 ----------------------------------------------------------------------
 #n M062X/cc-pvtz TD EmpiricalDispersion=GD3 Freq=(SaveNM,HPModes) Geom
 =AllCheck
 ----------------------------------------------------------------------
 1/10=4,29=7,30=1,38=1/1,3;
 2/12=2,40=1/2;
 3/5=16,6=1,11=9,14=-4,25=1,30=1,71=2,74=-55,124=31,140=1/1,2,3,8;
 4//1;
 5/5=2,38=5,98=1/2;
 8/6=1,10=1/1;
 9/15=3,42=1,70=2/14;
 10/5=2004,20=4/2;
 11/6=1,8=1,12=-1,16=1,42=3/1,2,10;
 10/6=3,21=1/2,14;
 6/7=2,8=2,9=2,10=2/1;
 7/8=11,10=1,12=6,13=8,25=1,44=2,92=1/1,2,3,16;
 1/10=4,30=1/3;
 99//99;
 Structure from the checkpoint file:  "check_tsf6.chk"
 -----
 Title
 -----
 Charge =  1 Multiplicity = 1
 Redundant internal coordinates found in file.  (old form).
 C,0,2.4926548907,1.3605401728,0.
 C,0,3.701507969,0.6720977308,0.
 C,0,3.683861065,-0.7137206777,0.
 C,0,2.4631561945,-1.4074290019,0.
 C,0,-2.4631561945,-1.4074290019,0.
 C,0,-3.683861065,-0.7137206777,0.
 C,0,-3.701507969,0.6720977308,0.
 C,0,-2.4926548907,1.3605401728,0.
 C,0,0.,1.4534784969,0.
 C,0,0.,-1.4290795761,0.
 C,0,1.2620554627,0.6771744048,0.
 C,0,1.2374709488,-0.7306953047,0.
 C,0,-1.2620554627,0.6771744048,0.
 C,0,-1.2374709488,-0.7306953047,0.
 H,0,2.4880712221,2.4437564641,0.
 H,0,4.6367529586,1.2117977842,0.
 H,0,4.6092621037,-1.272239782,0.
 H,0,2.4675498271,-2.4899496579,0.
 H,0,0.,-2.5101572065,0.
 H,0,-2.4675498271,-2.4899496579,0.
 H,0,-4.6092621037,-1.272239782,0.
 H,0,-4.6367529586,1.2117977842,0.
 H,0,-2.4880712221,2.4437564641,0.
 H,0,0.,2.1458965103,-0.8595854833
 H,0,0.,2.1458965103,0.8595854833
 Recover connectivity data from disk.

 GradGradGradGradGradGradGradGradGradGradGradGradGradGradGradGradGradGrad
 Berny optimization.
 Initialization pass.
                           ----------------------------
                           !    Initial Parameters    !
                           ! (Angstroms and Degrees)  !
 --------------------------                            --------------------------
 ! Name  Definition              Value          Derivative Info.                !
 --------------------------------------------------------------------------------
 ! R1    R(1,2)                  1.3911         calculate D2E/DX2 analytically  !
 ! R2    R(1,11)                 1.4076         calculate D2E/DX2 analytically  !
 ! R3    R(1,15)                 1.0832         calculate D2E/DX2 analytically  !
 ! R4    R(2,3)                  1.3859         calculate D2E/DX2 analytically  !
 ! R5    R(2,16)                 1.0798         calculate D2E/DX2 analytically  !
 ! R6    R(3,4)                  1.404          calculate D2E/DX2 analytically  !
 ! R7    R(3,17)                 1.0809         calculate D2E/DX2 analytically  !
 ! R8    R(4,12)                 1.4001         calculate D2E/DX2 analytically  !
 ! R9    R(4,18)                 1.0825         calculate D2E/DX2 analytically  !
 ! R10   R(5,6)                  1.404          calculate D2E/DX2 analytically  !
 ! R11   R(5,14)                 1.4001         calculate D2E/DX2 analytically  !
 ! R12   R(5,20)                 1.0825         calculate D2E/DX2 analytically  !
 ! R13   R(6,7)                  1.3859         calculate D2E/DX2 analytically  !
 ! R14   R(6,21)                 1.0809         calculate D2E/DX2 analytically  !
 ! R15   R(7,8)                  1.3911         calculate D2E/DX2 analytically  !
 ! R16   R(7,22)                 1.0798         calculate D2E/DX2 analytically  !
 ! R17   R(8,13)                 1.4076         calculate D2E/DX2 analytically  !
 ! R18   R(8,23)                 1.0832         calculate D2E/DX2 analytically  !
 ! R19   R(9,11)                 1.4817         calculate D2E/DX2 analytically  !
 ! R20   R(9,13)                 1.4817         calculate D2E/DX2 analytically  !
 ! R21   R(9,24)                 1.1038         calculate D2E/DX2 analytically  !
 ! R22   R(9,25)                 1.1038         calculate D2E/DX2 analytically  !
 ! R23   R(10,12)                1.4209         calculate D2E/DX2 analytically  !
 ! R24   R(10,14)                1.4209         calculate D2E/DX2 analytically  !
 ! R25   R(10,19)                1.0811         calculate D2E/DX2 analytically  !
 ! R26   R(11,12)                1.4081         calculate D2E/DX2 analytically  !
 ! R27   R(13,14)                1.4081         calculate D2E/DX2 analytically  !
 ! A1    A(2,1,11)             121.2946         calculate D2E/DX2 analytically  !
 ! A2    A(2,1,15)             119.904          calculate D2E/DX2 analytically  !
 ! A3    A(11,1,15)            118.8015         calculate D2E/DX2 analytically  !
 ! A4    A(1,2,3)              118.932          calculate D2E/DX2 analytically  !
 ! A5    A(1,2,16)             120.3506         calculate D2E/DX2 analytically  !
 ! A6    A(3,2,16)             120.7174         calculate D2E/DX2 analytically  !
 ! A7    A(2,3,4)              120.3385         calculate D2E/DX2 analytically  !
 ! A8    A(2,3,17)             120.3832         calculate D2E/DX2 analytically  !
 ! A9    A(4,3,17)             119.2783         calculate D2E/DX2 analytically  !
 ! A10   A(3,4,12)             121.4868         calculate D2E/DX2 analytically  !
 ! A11   A(3,4,18)             119.3764         calculate D2E/DX2 analytically  !
 ! A12   A(12,4,18)            119.1368         calculate D2E/DX2 analytically  !
 ! A13   A(6,5,14)             121.4868         calculate D2E/DX2 analytically  !
 ! A14   A(6,5,20)             119.3764         calculate D2E/DX2 analytically  !
 ! A15   A(14,5,20)            119.1368         calculate D2E/DX2 analytically  !
 ! A16   A(5,6,7)              120.3385         calculate D2E/DX2 analytically  !
 ! A17   A(5,6,21)             119.2783         calculate D2E/DX2 analytically  !
 ! A18   A(7,6,21)             120.3832         calculate D2E/DX2 analytically  !
 ! A19   A(6,7,8)              118.932          calculate D2E/DX2 analytically  !
 ! A20   A(6,7,22)             120.7174         calculate D2E/DX2 analytically  !
 ! A21   A(8,7,22)             120.3506         calculate D2E/DX2 analytically  !
 ! A22   A(7,8,13)             121.2946         calculate D2E/DX2 analytically  !
 ! A23   A(7,8,23)             119.904          calculate D2E/DX2 analytically  !
 ! A24   A(13,8,23)            118.8015         calculate D2E/DX2 analytically  !
 ! A25   A(11,9,13)            116.8077         calculate D2E/DX2 analytically  !
 ! A26   A(11,9,24)            109.188          calculate D2E/DX2 analytically  !
 ! A27   A(11,9,25)            109.188          calculate D2E/DX2 analytically  !
 ! A28   A(13,9,24)            109.188          calculate D2E/DX2 analytically  !
 ! A29   A(13,9,25)            109.188          calculate D2E/DX2 analytically  !
 ! A30   A(24,9,25)            102.2953         calculate D2E/DX2 analytically  !
 ! A31   A(12,10,14)           121.1223         calculate D2E/DX2 analytically  !
 ! A32   A(12,10,19)           119.4388         calculate D2E/DX2 analytically  !
 ! A33   A(14,10,19)           119.4388         calculate D2E/DX2 analytically  !
 ! A34   A(1,11,9)             119.36           calculate D2E/DX2 analytically  !
 ! A35   A(1,11,12)            120.0443         calculate D2E/DX2 analytically  !
 ! A36   A(9,11,12)            120.5957         calculate D2E/DX2 analytically  !
 ! A37   A(4,12,10)            121.6569         calculate D2E/DX2 analytically  !
 ! A38   A(4,12,11)            117.9039         calculate D2E/DX2 analytically  !
 ! A39   A(10,12,11)           120.4392         calculate D2E/DX2 analytically  !
 ! A40   A(8,13,9)             119.36           calculate D2E/DX2 analytically  !
 ! A41   A(8,13,14)            120.0443         calculate D2E/DX2 analytically  !
 ! A42   A(9,13,14)            120.5957         calculate D2E/DX2 analytically  !
 ! A43   A(5,14,10)            121.6569         calculate D2E/DX2 analytically  !
 ! A44   A(5,14,13)            117.9039         calculate D2E/DX2 analytically  !
 ! A45   A(10,14,13)           120.4392         calculate D2E/DX2 analytically  !
 ! D1    D(11,1,2,3)             0.0            calculate D2E/DX2 analytically  !
 ! D2    D(11,1,2,16)          180.0            calculate D2E/DX2 analytically  !
 ! D3    D(15,1,2,3)           180.0            calculate D2E/DX2 analytically  !
 ! D4    D(15,1,2,16)            0.0            calculate D2E/DX2 analytically  !
 ! D5    D(2,1,11,9)           180.0            calculate D2E/DX2 analytically  !
 ! D6    D(2,1,11,12)            0.0            calculate D2E/DX2 analytically  !
 ! D7    D(15,1,11,9)            0.0            calculate D2E/DX2 analytically  !
 ! D8    D(15,1,11,12)         180.0            calculate D2E/DX2 analytically  !
 ! D9    D(1,2,3,4)              0.0            calculate D2E/DX2 analytically  !
 ! D10   D(1,2,3,17)           180.0            calculate D2E/DX2 analytically  !
 ! D11   D(16,2,3,4)           180.0            calculate D2E/DX2 analytically  !
 ! D12   D(16,2,3,17)            0.0            calculate D2E/DX2 analytically  !
 ! D13   D(2,3,4,12)             0.0            calculate D2E/DX2 analytically  !
 ! D14   D(2,3,4,18)           180.0            calculate D2E/DX2 analytically  !
 ! D15   D(17,3,4,12)          180.0            calculate D2E/DX2 analytically  !
 ! D16   D(17,3,4,18)            0.0            calculate D2E/DX2 analytically  !
 ! D17   D(3,4,12,10)          180.0            calculate D2E/DX2 analytically  !
 ! D18   D(3,4,12,11)            0.0            calculate D2E/DX2 analytically  !
 ! D19   D(18,4,12,10)           0.0            calculate D2E/DX2 analytically  !
 ! D20   D(18,4,12,11)         180.0            calculate D2E/DX2 analytically  !
 ! D21   D(14,5,6,7)             0.0            calculate D2E/DX2 analytically  !
 ! D22   D(14,5,6,21)          180.0            calculate D2E/DX2 analytically  !
 ! D23   D(20,5,6,7)           180.0            calculate D2E/DX2 analytically  !
 ! D24   D(20,5,6,21)            0.0            calculate D2E/DX2 analytically  !
 ! D25   D(6,5,14,10)          180.0            calculate D2E/DX2 analytically  !
 ! D26   D(6,5,14,13)            0.0            calculate D2E/DX2 analytically  !
 ! D27   D(20,5,14,10)           0.0            calculate D2E/DX2 analytically  !
 ! D28   D(20,5,14,13)         180.0            calculate D2E/DX2 analytically  !
 ! D29   D(5,6,7,8)              0.0            calculate D2E/DX2 analytically  !
 ! D30   D(5,6,7,22)           180.0            calculate D2E/DX2 analytically  !
 ! D31   D(21,6,7,8)           180.0            calculate D2E/DX2 analytically  !
 ! D32   D(21,6,7,22)            0.0            calculate D2E/DX2 analytically  !
 ! D33   D(6,7,8,13)             0.0            calculate D2E/DX2 analytically  !
 ! D34   D(6,7,8,23)           180.0            calculate D2E/DX2 analytically  !
 ! D35   D(22,7,8,13)          180.0            calculate D2E/DX2 analytically  !
 ! D36   D(22,7,8,23)            0.0            calculate D2E/DX2 analytically  !
 ! D37   D(7,8,13,9)           180.0            calculate D2E/DX2 analytically  !
 ! D38   D(7,8,13,14)            0.0            calculate D2E/DX2 analytically  !
 ! D39   D(23,8,13,9)            0.0            calculate D2E/DX2 analytically  !
 ! D40   D(23,8,13,14)         180.0            calculate D2E/DX2 analytically  !
 ! D41   D(13,9,11,1)          180.0            calculate D2E/DX2 analytically  !
 ! D42   D(13,9,11,12)           0.0            calculate D2E/DX2 analytically  !
 ! D43   D(24,9,11,1)           55.5453         calculate D2E/DX2 analytically  !
 ! D44   D(24,9,11,12)        -124.4547         calculate D2E/DX2 analytically  !
 ! D45   D(25,9,11,1)          -55.5453         calculate D2E/DX2 analytically  !
 ! D46   D(25,9,11,12)         124.4547         calculate D2E/DX2 analytically  !
 ! D47   D(11,9,13,8)          180.0            calculate D2E/DX2 analytically  !
 ! D48   D(11,9,13,14)           0.0            calculate D2E/DX2 analytically  !
 ! D49   D(24,9,13,8)          -55.5453         calculate D2E/DX2 analytically  !
 ! D50   D(24,9,13,14)         124.4547         calculate D2E/DX2 analytically  !
 ! D51   D(25,9,13,8)           55.5453         calculate D2E/DX2 analytically  !
 ! D52   D(25,9,13,14)        -124.4547         calculate D2E/DX2 analytically  !
 ! D53   D(14,10,12,4)         180.0            calculate D2E/DX2 analytically  !
 ! D54   D(14,10,12,11)          0.0            calculate D2E/DX2 analytically  !
 ! D55   D(19,10,12,4)           0.0            calculate D2E/DX2 analytically  !
 ! D56   D(19,10,12,11)        180.0            calculate D2E/DX2 analytically  !
 ! D57   D(12,10,14,5)         180.0            calculate D2E/DX2 analytically  !
 ! D58   D(12,10,14,13)          0.0            calculate D2E/DX2 analytically  !
 ! D59   D(19,10,14,5)           0.0            calculate D2E/DX2 analytically  !
 ! D60   D(19,10,14,13)        180.0            calculate D2E/DX2 analytically  !
 ! D61   D(1,11,12,4)            0.0            calculate D2E/DX2 analytically  !
 ! D62   D(1,11,12,10)         180.0            calculate D2E/DX2 analytically  !
 ! D63   D(9,11,12,4)          180.0            calculate D2E/DX2 analytically  !
 ! D64   D(9,11,12,10)           0.0            calculate D2E/DX2 analytically  !
 ! D65   D(8,13,14,5)            0.0            calculate D2E/DX2 analytically  !
 ! D66   D(8,13,14,10)         180.0            calculate D2E/DX2 analytically  !
 ! D67   D(9,13,14,5)          180.0            calculate D2E/DX2 analytically  !
 ! D68   D(9,13,14,10)           0.0            calculate D2E/DX2 analytically  !
 --------------------------------------------------------------------------------
 Trust Radius=3.00D-01 FncErr=1.00D-07 GrdErr=1.00D-07 EigMax=2.50D+02 EigMin=1.00D-04
 Number of steps in this run=      2 maximum allowed number of steps=      2.
 GradGradGradGradGradGradGradGradGradGradGradGradGradGradGradGradGradGrad

                          Input orientation:                          
 ---------------------------------------------------------------------
 Center     Atomic      Atomic             Coordinates (Angstroms)
 Number     Number       Type             X           Y           Z
 ---------------------------------------------------------------------
      1          6           0        2.492655    1.360540   -0.000000
      2          6           0        3.701508    0.672098    0.000000
      3          6           0        3.683861   -0.713721    0.000000
      4          6           0        2.463156   -1.407429   -0.000000
      5          6           0       -2.463156   -1.407429   -0.000000
      6          6           0       -3.683861   -0.713721   -0.000000
      7          6           0       -3.701508    0.672098   -0.000000
      8          6           0       -2.492655    1.360540   -0.000000
      9          6           0       -0.000000    1.453478   -0.000000
     10          6           0        0.000000   -1.429080   -0.000000
     11          6           0        1.262055    0.677174   -0.000000
     12          6           0        1.237471   -0.730695   -0.000000
     13          6           0       -1.262055    0.677174   -0.000000
     14          6           0       -1.237471   -0.730695   -0.000000
     15          1           0        2.488071    2.443756   -0.000000
     16          1           0        4.636753    1.211798    0.000000
     17          1           0        4.609262   -1.272240    0.000000
     18          1           0        2.467550   -2.489950   -0.000000
     19          1           0        0.000000   -2.510157   -0.000000
     20          1           0       -2.467550   -2.489950   -0.000000
     21          1           0       -4.609262   -1.272240   -0.000000
     22          1           0       -4.636753    1.211798   -0.000000
     23          1           0       -2.488071    2.443756   -0.000000
     24          1           0       -0.000000    2.145897   -0.859585
     25          1           0       -0.000000    2.145897    0.859585
 ---------------------------------------------------------------------
                    Distance matrix (angstroms):
                    1          2          3          4          5
     1  C    0.000000
     2  C    1.391143   0.000000
     3  C    2.391972   1.385931   0.000000
     4  C    2.768126   2.420320   1.404048   0.000000
     5  C    5.676418   6.505960   6.186037   4.926312   0.000000
     6  C    6.515513   7.514264   7.367722   6.186037   1.404048
     7  C    6.232303   7.403016   7.514264   6.505960   2.420320
     8  C    4.985310   6.232303   6.515513   5.676418   2.768126
     9  C    2.494387   3.783083   4.274059   3.775173   3.775173
    10  C    3.741030   4.256302   3.752675   2.463251   2.463251
    11  C    1.407609   2.439458   2.792800   2.405871   4.268814
    12  C    2.439006   2.835367   2.446449   1.400097   3.761995
    13  C    3.816391   4.963566   5.137770   4.268814   2.405871
    14  C    4.276342   5.134330   4.921361   3.761995   1.400097
    15  H    1.083226   2.147371   3.376326   3.851266   6.272662
    16  H    2.149251   1.079796   2.148400   3.403656   7.567632
    17  H    3.378100   2.145802   1.080884   2.150360   7.073710
    18  H    3.850572   3.394289   2.152766   1.082530   5.048140
    19  H    4.603871   4.881384   4.098538   2.698731   2.698731
    20  H    6.279323   6.932230   6.402722   5.048140   1.082530
    21  H    7.574216   8.535183   8.311909   7.073710   2.150360
    22  H    7.130959   8.355709   8.540506   7.567632   3.403656
    23  H    5.097155   6.438141   6.932706   6.272662   3.851266
    24  H    2.751182   4.075798   4.742060   4.408191   4.408191
    25  H    2.751182   4.075798   4.742060   4.408191   4.408191
                    6          7          8          9         10
     6  C    0.000000
     7  C    1.385931   0.000000
     8  C    2.391972   1.391143   0.000000
     9  C    4.274059   3.783083   2.494387   0.000000
    10  C    3.752675   4.256302   3.741030   2.882558   0.000000
    11  C    5.137770   4.963566   3.816391   1.481699   2.455420
    12  C    4.921361   5.134330   4.276342   2.510368   1.420942
    13  C    2.792800   2.439458   1.407609   1.481699   2.455420
    14  C    2.446449   2.835367   2.439006   2.510368   1.420942
    15  H    6.932706   6.438141   5.097155   2.677900   4.603190
    16  H    8.540506   8.355709   7.130959   4.643047   5.336076
    17  H    8.311909   8.535183   7.574216   5.354889   4.611930
    18  H    6.402722   6.932230   6.279323   4.651820   2.685935
    19  H    4.098538   4.881384   4.603871   3.963636   1.081078
    20  H    2.152766   3.394289   3.850572   4.651820   2.685935
    21  H    1.080884   2.145802   3.378100   5.354889   4.611930
    22  H    2.148400   1.079796   2.149251   4.643047   5.336076
    23  H    3.376326   2.147371   1.083226   2.677900   4.603190
    24  H    4.742060   4.075798   2.751182   1.103780   3.676866
    25  H    4.742060   4.075798   2.751182   1.103780   3.676866
                   11         12         13         14         15
    11  C    0.000000
    12  C    1.408084   0.000000
    13  C    2.524111   2.868750   0.000000
    14  C    2.868750   2.474942   1.408084   0.000000
    15  H    2.150332   3.411912   4.145390   4.894569   0.000000
    16  H    3.416783   3.915150   5.922986   6.187066   2.476803
    17  H    3.873501   3.415003   6.186484   5.871759   4.278794
    18  H    3.388789   2.146642   4.892916   4.101482   4.933749
    19  H    3.428100   2.167445   3.428100   2.167445   5.543623
    20  H    4.892916   4.101482   3.388789   2.146642   6.992827
    21  H    6.186484   5.871759   3.873501   3.415003   8.011290
    22  H    5.922986   6.187066   3.416783   3.915150   7.230549
    23  H    4.145390   4.894569   2.150332   3.411912   4.976142
    24  H    2.118683   3.247307   2.118683   3.247307   2.649171
    25  H    2.118683   3.247307   2.118683   3.247307   2.649171
                   16         17         18         19         20
    16  H    0.000000
    17  H    2.484190   0.000000
    18  H    4.290498   2.463686   0.000000
    19  H    5.945791   4.772603   2.467633   0.000000
    20  H    8.010871   7.180814   4.935100   2.467633   0.000000
    21  H    9.573883   9.218524   7.180814   4.772603   2.463686
    22  H    9.273506   9.573883   8.010871   5.945791   4.290498
    23  H    7.230549   8.011290   6.992827   5.543623   4.933749
    24  H    4.807380   5.802400   5.321537   4.734736   5.321537
    25  H    4.807380   5.802400   5.321537   4.734736   5.321537
                   21         22         23         24         25
    21  H    0.000000
    22  H    2.484190   0.000000
    23  H    4.278794   2.476803   0.000000
    24  H    5.802400   4.807380   2.649171   0.000000
    25  H    5.802400   4.807380   2.649171   1.719171   0.000000
 Stoichiometry    C14H11(1+)
 Framework group  C2V[C2(HCC),SGV(C12H8),SGV'(H2)]
 Deg. of freedom    24
 Full point group                 C2V     NOp   4
 Largest Abelian subgroup         C2V     NOp   4
 Largest concise Abelian subgroup C2V     NOp   4
                         Standard orientation:                         
 ---------------------------------------------------------------------
 Center     Atomic      Atomic             Coordinates (Angstroms)
 Number     Number       Type             X           Y           Z
 ---------------------------------------------------------------------
      1          6           0       -0.000000    2.492655    1.360431
      2          6           0       -0.000000    3.701508    0.671989
      3          6           0       -0.000000    3.683861   -0.713830
      4          6           0       -0.000000    2.463156   -1.407538
      5          6           0       -0.000000   -2.463156   -1.407538
      6          6           0       -0.000000   -3.683861   -0.713830
      7          6           0       -0.000000   -3.701508    0.671989
      8          6           0       -0.000000   -2.492655    1.360431
      9          6           0        0.000000   -0.000000    1.453369
     10          6           0       -0.000000    0.000000   -1.429189
     11          6           0       -0.000000    1.262055    0.677065
     12          6           0       -0.000000    1.237471   -0.730804
     13          6           0       -0.000000   -1.262055    0.677065
     14          6           0       -0.000000   -1.237471   -0.730804
     15          1           0       -0.000000    2.488071    2.443647
     16          1           0       -0.000000    4.636753    1.211689
     17          1           0       -0.000000    4.609262   -1.272349
     18          1           0       -0.000000    2.467550   -2.490059
     19          1           0       -0.000000    0.000000   -2.510266
     20          1           0       -0.000000   -2.467550   -2.490059
     21          1           0       -0.000000   -4.609262   -1.272349
     22          1           0       -0.000000   -4.636753    1.211689
     23          1           0       -0.000000   -2.488071    2.443647
     24          1           0       -0.859585    0.000000    2.145787
     25          1           0        0.859585   -0.000000    2.145787
 ---------------------------------------------------------------------
 Rotational constants (GHZ):           2.1362267           0.4446268           0.3688270
 Standard basis: CC-pVTZ (5D, 7F)
 There are   239 symmetry adapted cartesian basis functions of A1  symmetry.
 There are    93 symmetry adapted cartesian basis functions of A2  symmetry.
 There are   112 symmetry adapted cartesian basis functions of B1  symmetry.
 There are   211 symmetry adapted cartesian basis functions of B2  symmetry.
 There are   203 symmetry adapted basis functions of A1  symmetry.
 There are    87 symmetry adapted basis functions of A2  symmetry.
 There are   103 symmetry adapted basis functions of B1  symmetry.
 There are   181 symmetry adapted basis functions of B2  symmetry.
   574 basis functions,   915 primitive gaussians,   655 cartesian basis functions
    47 alpha electrons       47 beta electrons
       nuclear repulsion energy       781.1974888916 Hartrees.
 NAtoms=   25 NActive=   25 NUniq=   14 SFac= 3.19D+00 NAtFMM=   60 NAOKFM=F Big=F
 Integral buffers will be    131072 words long.
 Regular integral format.
 Two-electron integral symmetry is turned on.
 Nuclear repulsion after empirical dispersion term =      781.1965093996 Hartrees.
 One-electron integrals computed using PRISM.
 NBasis=   574 RedAO= T EigKep=  1.74D-05  NBF=   203    87   103   181
 NBsUse=   574 1.00D-06 EigRej= -1.00D+00 NBFU=   203    87   103   181
 ExpMin= 1.03D-01 ExpMax= 8.24D+03 ExpMxC= 2.81D+02 IAcc=3 IRadAn=         5 AccDes= 0.00D+00
 Harris functional with IExCor= 1009 and IRadAn=       5 diagonalized for initial guess.
 HarFok:  IExCor= 1009 AccDes= 0.00D+00 IRadAn=         5 IDoV= 1 UseB2=F ITyADJ=14
 ICtDFT=  3500011 ScaDFX=  1.000000  1.000000  1.000000  1.000000
 FoFCou: FMM=F IPFlag=           0 FMFlag=      100000 FMFlg1=           0
         NFxFlg=           0 DoJE=T BraDBF=F KetDBF=T FulRan=T
         wScrn=  0.000000 ICntrl=       500 IOpCl=  0 I1Cent=   200000004 NGrid=           0
         NMat0=    1 NMatS0=      1 NMatT0=    0 NMatD0=    1 NMtDS0=    0 NMtDT0=    0
 Petite list used in FoFCou.
 Initial guess orbital symmetries:
       Occupied  (A1) (B2) (A1) (B2) (A1) (A1) (B2) (A1) (B2) (A1)
                 (B2) (A1) (B2) (A1) (A1) (B2) (A1) (A1) (B2) (B2)
                 (A1) (A1) (B2) (A1) (B2) (A1) (B2) (A1) (A1) (B2)
                 (B2) (A1) (B1) (B2) (B2) (A1) (A1) (A1) (B2) (A2)
                 (B1) (B2) (A1) (B1) (A2) (A2) (B1)
       Virtual   (B1) (B1) (A2) (A2) (B1) (A1) (B2) (A2) (A1) (B1)
                 (A1) (B2) (B2) (A1) (B2) (A1) (A1) (B1) (A1) (B2)
                 (A1) (B2) (A1) (B2) (B2) (A1) (B2) (A1) (B2) (A1)
                 (B1) (A1) (A2) (A1) (B1) (B2) (B1) (A1) (B2) (A2)
                 (B2) (A1) (B2) (B2) (A2) (A1) (B2) (B1) (A1) (B1)
                 (A2) (A1) (B2) (A1) (B1) (A1) (A2) (A1) (B2) (A1)
                 (B1) (A1) (B2) (A1) (B2) (B1) (A1) (A2) (B2) (A1)
                 (B1) (B2) (A1) (A2) (B2) (A1) (B2) (A1) (B1) (B2)
                 (A2) (B2) (B1) (A2) (A1) (B1) (A1) (A2) (A1) (B2)
                 (B2) (B1) (A1) (B2) (B2) (A1) (A2) (B1) (A1) (B2)
                 (A2) (A1) (A1) (B2) (B2) (B1) (A1) (A1) (B2) (B1)
                 (A2) (A1) (A1) (B2) (A2) (B2) (B2) (A1) (B1) (B1)
                 (B2) (B1) (A1) (B2) (A2) (A1) (A2) (A1) (B1) (A1)
                 (B2) (A2) (B1) (B2) (B2) (B1) (A2) (A1) (B2) (A1)
                 (A2) (A1) (B2) (B1) (A1) (B2) (A2) (B2) (A1) (B1)
                 (A1) (A1) (B1) (B2) (A1) (A1) (B2) (B1) (A2) (A1)
                 (B2) (B2) (B1) (A1) (B2) (A1) (A2) (A1) (B2) (B2)
                 (A2) (A1) (A1) (B2) (B2) (B1) (B2) (A1) (A1) (B1)
                 (A1) (B2) (A1) (A2) (B2) (B1) (A1) (A1) (B2) (B2)
                 (A1) (A2) (A1) (B2) (B1) (A2) (B2) (B2) (A1) (A1)
                 (B1) (B2) (A1) (B2) (A1) (A2) (B2) (B1) (A2) (B1)
                 (A1) (B1) (A2) (A1) (B2) (A2) (A1) (B1) (B2) (B2)
                 (A2) (B2) (A1) (A1) (A1) (B2) (A1) (B1) (B2) (A1)
                 (B2) (B1) (A1) (B1) (A2) (A1) (B2) (A2) (B1) (B2)
                 (A1) (A1) (B2) (B2) (B1) (A2) (B1) (A2) (B2) (A2)
                 (A1) (B1) (B2) (A1) (A2) (B1) (B1) (A2) (A1) (A1)
                 (B1) (B2) (B2) (A1) (A2) (B1) (B2) (A1) (A2) (A1)
                 (B1) (A2) (B2) (B1) (B1) (B2) (A2) (A1) (A1) (B2)
                 (A1) (B2) (B1) (A2) (A1) (B2) (A2) (A1) (B2) (B1)
                 (A1) (B2) (A2) (A1) (B2) (B1) (B2) (B1) (B2) (A1)
                 (A1) (B2) (B1) (A1) (A1) (A2) (A1) (B2) (A2) (A1)
                 (A2) (B1) (B2) (B1) (B2) (B1) (A2) (A1) (B2) (B1)
                 (A1) (A2) (A1) (A1) (B2) (B1) (B2) (B1) (A1) (A2)
                 (B2) (B1) (A2) (A2) (A1) (B2) (A1) (A1) (B1) (B2)
                 (B2) (A1) (A2) (B1) (A2) (A2) (B2) (A1) (A2) (B1)
                 (A1) (A1) (B1) (B2) (B2) (B1) (B2) (A1) (A2) (A1)
                 (A1) (B1) (B2) (A2) (B2) (A1) (A1) (B1) (A2) (A1)
                 (B2) (A2) (A1) (B1) (B2) (B1) (A2) (A1) (B2) (A1)
                 (B2) (A2) (B1) (B1) (A1) (A2) (B2) (A1) (B2) (A1)
                 (B1) (A1) (B2) (A2) (B1) (B2) (A2) (B2) (A1) (B1)
                 (A1) (A2) (B2) (B1) (A1) (A1) (B2) (B2) (A1) (A2)
                 (B2) (B1) (A1) (B2) (A2) (A1) (A1) (A2) (B2) (A2)
                 (B1) (B2) (B1) (A1) (A2) (B1) (B2) (B2) (A1) (B1)
                 (B2) (A1) (A1) (B2) (A1) (B2) (B1) (A2) (A1) (B2)
                 (A1) (A2) (B1) (A1) (B2) (A1) (B1) (B2) (B2) (A1)
                 (A2) (A2) (B1) (B2) (A2) (A1) (A1) (B2) (B1) (B2)
                 (B1) (A1) (A2) (B2) (B1) (B2) (B2) (A2) (B1) (A1)
                 (A1) (B2) (B1) (A1) (A1) (A1) (B2) (B2) (A1) (B2)
                 (A1) (B1) (A2) (A1) (B2) (B2) (B1) (A1) (A2) (A1)
                 (B2) (A1) (B2) (A1) (A1) (A1) (B2) (B2) (B2) (B2)
                 (A1) (A1) (A1) (B1) (B2) (B2) (A1) (A1) (B2) (A1)
                 (B2) (A1) (B2) (A1) (B2) (A1) (B2) (B2) (A1) (A1)
                 (B2) (B2) (A1) (A1) (A1) (B2) (A1)
 The electronic state of the initial guess is 1-A1.
 Requested convergence on RMS density matrix=1.00D-08 within 128 cycles.
 Requested convergence on MAX density matrix=1.00D-06.
 Requested convergence on             energy=1.00D-06.
 No special actions if energy rises.
 Integral accuracy reduced to 1.0D-05 until final iterations.
 Initial convergence to 1.0D-05 achieved.  Increase integral accuracy.
 SCF Done:  E(RM062X) =  -539.815832845     A.U. after   14 cycles
            NFock= 14  Conv=0.51D-08     -V/T= 2.0063
 DoSCS=F DFT=T ScalE2(SS,OS)=  1.000000  1.000000
 ExpMin= 1.03D-01 ExpMax= 8.24D+03 ExpMxC= 2.81D+02 IAcc=3 IRadAn=         5 AccDes= 0.00D+00
 HarFok:  IExCor=  205 AccDes= 0.00D+00 IRadAn=         5 IDoV=-2 UseB2=F ITyADJ=14
 ICtDFT= 12500011 ScaDFX=  1.000000  1.000000  1.000000  1.000000
 Range of M.O.s used for correlation:    15   574
 NBasis=   574 NAE=    47 NBE=    47 NFC=    14 NFV=     0
 NROrb=    560 NOA=    33 NOB=    33 NVA=   527 NVB=   527

 **** Warning!!: The largest alpha MO coefficient is  0.55844034D+02

 Orbital symmetries:
       Occupied  (A1) (B2) (A1) (B2) (A1) (A1) (B2) (B2) (A1) (A1)
                 (B2) (A1) (B2) (A1) (A1) (B2) (A1) (A1) (B2) (B2)
                 (A1) (A1) (A1) (B2) (B2) (A1) (B2) (A1) (A1) (B2)
                 (A1) (B1) (B2) (B2) (A1) (B2) (A1) (B1) (A2) (A1)
                 (B2) (A1) (B2) (B1) (A2) (A2) (B1)
       Virtual   (B1) (B1) (A2) (A2) (B1) (A1) (A1) (B2) (A1) (B2)
                 (B1) (B2) (A1) (B2) (A1) (A2) (A1) (B1) (B2) (A1)
                 (B2) (A1) (A1) (B2) (A1) (B2) (A1) (B1) (A1) (B2)
                 (B2) (A2) (A1) (B1) (A1) (B1) (A2) (B2) (A1) (B2)
                 (A2) (B1) (B2) (A1) (B2) (A1) (B1) (A1) (B2) (A2)
                 (B2) (A1) (B2) (B1) (A1) (A2) (A1) (A1) (A1) (B1)
                 (A1) (B2) (B2) (B2) (B1) (A2) (B1) (A1) (A1) (A1)
                 (B2) (B2) (A2) (B2) (A1) (A1) (B2) (A1) (B1) (A2)
                 (B1) (B2) (A2) (B2) (A1) (B1) (B2) (A1) (A2) (A1)
                 (B2) (B1) (B2) (A1) (B1) (A2) (A1) (B2) (A1) (B2)
                 (A1) (A2) (B2) (A1) (B2) (A1) (A1) (B2) (B1) (A1)
                 (B1) (A2) (B2) (A1) (B2) (A2) (B2) (A1) (B2) (A1)
                 (B1) (B1) (B1) (A2) (B2) (A1) (A1) (A2) (B1) (A1)
                 (B2) (A2) (B1) (B2) (B2) (B1) (A2) (A1) (B2) (A1)
                 (A1) (A2) (B2) (A1) (B2) (B1) (A1) (B1) (A1) (A2)
                 (A1) (B2) (B2) (B1) (A1) (B2) (B1) (A1) (A2) (A1)
                 (B2) (B2) (A1) (B1) (B2) (A2) (A1) (A1) (B2) (B2)
                 (A2) (A1) (A1) (B1) (B2) (B2) (A1) (B2) (A1) (B1)
                 (B2) (A1) (A1) (A2) (B2) (A1) (B1) (B2) (A1) (B2)
                 (A1) (A2) (A1) (B2) (B2) (B2) (A1) (A1) (B1) (A2)
                 (B2) (A1) (B1) (A1) (B2) (B2) (A2) (A1) (B1) (A2)
                 (B1) (A1) (B1) (B2) (A2) (A1) (A2) (B1) (B2) (B2)
                 (A2) (B2) (A1) (A1) (A1) (B2) (A1) (B1) (A1) (B2)
                 (B1) (B2) (A1) (A1) (A2) (B1) (B2) (B1) (A2) (A1)
                 (B2) (B2) (A1) (B2) (B1) (A2) (B1) (A2) (A1) (B1)
                 (A2) (B2) (A2) (A1) (B1) (B1) (B2) (A1) (A2) (B1)
                 (A1) (B2) (A1) (B2) (A2) (B1) (B2) (A1) (A2) (A1)
                 (B1) (B1) (A2) (B2) (B2) (B1) (A2) (A1) (B2) (A1)
                 (A1) (B1) (A2) (B2) (A1) (A2) (B1) (B2) (B2) (A1)
                 (A1) (B2) (A1) (A2) (B1) (B2) (B1) (B2) (A1) (B2)
                 (A1) (B1) (A2) (B2) (A1) (A2) (A1) (A1) (B2) (A2)
                 (B1) (A1) (B1) (B2) (A2) (B1) (B2) (A1) (B1) (B2)
                 (A1) (A2) (A1) (A1) (B2) (A2) (B1) (B1) (B2) (A1)
                 (A2) (B1) (A2) (B2) (A1) (B2) (A1) (B1) (A1) (B2)
                 (A2) (B1) (B2) (A2) (A1) (A2) (A1) (B2) (A2) (B1)
                 (A1) (B1) (A1) (B1) (B2) (B2) (A2) (A1) (A1) (B2)
                 (B1) (A1) (A2) (B2) (A2) (A1) (B1) (B2) (A1) (A1)
                 (B1) (A2) (B2) (A2) (A1) (B1) (B2) (A2) (B1) (A1)
                 (B1) (B2) (A2) (A1) (B2) (A1) (B1) (A1) (B2) (B2)
                 (A1) (B1) (A2) (A2) (A1) (B2) (B1) (B2) (A2) (A1)
                 (B2) (A1) (B1) (B2) (A1) (A2) (A1) (B2) (B2) (A1)
                 (B2) (B1) (A2) (A1) (B2) (A1) (A1) (A2) (B1) (B2)
                 (A2) (B1) (B2) (A1) (B1) (A2) (B2) (B2) (A1) (B2)
                 (B1) (A1) (B2) (A1) (A1) (B1) (A2) (B2) (A1) (B2)
                 (A1) (B1) (A2) (B2) (A1) (A1) (B1) (B2) (B2) (A2)
                 (A1) (B2) (A2) (B1) (A2) (A1) (A1) (B2) (B1) (B1)
                 (B2) (A1) (A2) (B2) (B1) (B2) (B2) (A2) (B1) (A1)
                 (B2) (B1) (A1) (A1) (A1) (A1) (B2) (B2) (A1) (B2)
                 (A1) (B1) (A2) (A1) (B2) (B1) (B2) (A1) (A2) (B2)
                 (A1) (A1) (B2) (A1) (A1) (A1) (B2) (B2) (B2) (A1)
                 (B2) (A1) (B1) (A1) (B2) (B2) (A1) (A1) (B2) (A1)
                 (B2) (A1) (B2) (A1) (B2) (A1) (B2) (B2) (A1) (A1)
                 (B2) (B2) (A1) (A1) (A1) (B2) (A1)
    12 initial guesses have been made.
 Convergence on wavefunction:    0.000001000000000
 Iteration     1 Dimension    12 NMult     0 NNew     12
 CISAX will form    12 AO SS matrices at one time.
 New state      2 was old state      3
 New state      3 was old state      2
 Iteration     2 Dimension    18 NMult    12 NNew      6
 Iteration     3 Dimension    24 NMult    18 NNew      6
 Iteration     4 Dimension    30 NMult    24 NNew      6
 Iteration     5 Dimension    36 NMult    30 NNew      6
 Iteration     6 Dimension    42 NMult    36 NNew      6
 Iteration     7 Dimension    48 NMult    42 NNew      6
 Iteration     8 Dimension    54 NMult    48 NNew      6
 Iteration     9 Dimension    60 NMult    54 NNew      6
 Iteration    10 Dimension    62 NMult    60 NNew      2
 Iteration    11 Dimension    64 NMult    62 NNew      2
 ***********************************************************************
 Excited states from <AA,BB:AA,BB> singles matrix:
 ***********************************************************************
 
 Ground to excited state transition densities written to RWF  633
 Ground to excited state transition electric dipole moments (Au):
       state          X           Y           Z        Dip. S.      Osc.
         1         0.0000     -0.0000      0.6320      0.3994      0.0276
         2        -0.0000     -0.2103     -0.0000      0.0442      0.0035
         3         0.0000      2.5298     -0.0000      6.3997      0.5465
 Ground to excited state transition velocity dipole moments (Au):
       state          X           Y           Z        Dip. S.      Osc.
         1        -0.0000      0.0000     -0.0695      0.0048      0.0310
         2         0.0000      0.0244     -0.0000      0.0006      0.0033
         3        -0.0000     -0.3336      0.0000      0.1113      0.5794
 Ground to excited state transition magnetic dipole moments (Au):
       state          X           Y           Z
         1         0.0000     -0.0000     -0.0000
         2         0.9350     -0.0000      0.0000
         3        -1.1154      0.0000     -0.0000
 Ground to excited state transition velocity quadrupole moments (Au):
       state          XX          YY          ZZ          XY          XZ          YZ
         1        -0.0078      0.2734      0.0300      0.0000     -0.0000      0.0000
         2         0.0000      0.0000      0.0000      0.0000     -0.0000      0.2803
         3        -0.0000     -0.0000     -0.0000      0.0000      0.0000     -0.1132
 <0|del|b> * <b|rxdel|0> + <0|del|b> * <b|delr+rdel|0>
 Rotatory Strengths (R) in cgs (10**-40 erg-esu-cm/Gauss)
       state          XX          YY          ZZ    R(velocity)    E-M Angle
         1        -0.0000      0.0000     -0.0000      0.0000       90.00
         2        -0.0000      0.0000     -0.0000     -0.0000       90.00
         3        -0.0000      0.0000      0.0000      0.0000       90.00
 1/2[<0|r|b>*<b|rxdel|0> + (<0|rxdel|b>*<b|r|0>)*]
 Rotatory Strengths (R) in cgs (10**-40 erg-esu-cm/Gauss)
       state          XX          YY          ZZ     R(length)
         1        -0.0000     -0.0000      0.0000      0.0000
         2         0.0000     -0.0000      0.0000     -0.0000
         3         0.0000     -0.0000     -0.0000     -0.0000
  1/2[<0|del|b>*<b|r|0> + (<0|r|b>*<b|del|0>)*] (Au)
       state          X           Y           Z        Dip. S.   Osc.(frdel)
         1        -0.0000     -0.0000     -0.0439      0.0439      0.0293
         2        -0.0000     -0.0051      0.0000      0.0051      0.0034
         3        -0.0000     -0.8440     -0.0000      0.8440      0.5627

 Excitation energies and oscillator strengths:
 
 Excited State   1:      Singlet-A1     2.8225 eV  439.26 nm  f=0.0276  <S**2>=0.000
      47 -> 48         0.70416
 This state for optimization and/or second-order correction.
 Total Energy, E(TD-HF/TD-DFT) =  -539.712106157    
 Copying the excited state density for this state as the 1-particle RhoCI density.
 
 Excited State   2:      Singlet-B2     3.2644 eV  379.80 nm  f=0.0035  <S**2>=0.000
      45 -> 48         0.61321
      46 -> 48        -0.34069
 
 Excited State   3:      Singlet-B2     3.4853 eV  355.73 nm  f=0.5465  <S**2>=0.000
      45 -> 48         0.34268
      46 -> 48         0.60880
 SavETr:  write IOETrn=   770 NScale= 10 NData=  16 NLR=1 NState=    3 LETran=      64.
          IDoAtm=1111111111111111111111111
          Differentiating once with respect to electric field.
                with respect to dipole field.
          Differentiating once with respect to nuclear coordinates.
          There are     1 degrees of freedom in the 1st order CPHF.  IDoFFX=0 NUNeed=     1.
 LinEq1:  Iter=  0 NonCon=     1 RMS=5.77D-03 Max=4.18D-01 NDo=     1
 AX will form     1 AO Fock derivatives at one time.
 LinEq1:  Iter=  1 NonCon=     1 RMS=1.85D-03 Max=1.39D-01 NDo=     1
 LinEq1:  Iter=  2 NonCon=     1 RMS=1.45D-03 Max=1.07D-01 NDo=     1
 LinEq1:  Iter=  3 NonCon=     1 RMS=4.55D-04 Max=2.36D-02 NDo=     1
 LinEq1:  Iter=  4 NonCon=     1 RMS=2.34D-04 Max=1.51D-02 NDo=     1
 LinEq1:  Iter=  5 NonCon=     1 RMS=1.33D-04 Max=1.01D-02 NDo=     1
 LinEq1:  Iter=  6 NonCon=     1 RMS=7.48D-05 Max=4.32D-03 NDo=     1
 LinEq1:  Iter=  7 NonCon=     1 RMS=3.21D-05 Max=2.20D-03 NDo=     1
 LinEq1:  Iter=  8 NonCon=     1 RMS=1.56D-05 Max=7.83D-04 NDo=     1
 LinEq1:  Iter=  9 NonCon=     1 RMS=6.66D-06 Max=3.39D-04 NDo=     1
 LinEq1:  Iter= 10 NonCon=     1 RMS=2.43D-06 Max=9.50D-05 NDo=     1
 LinEq1:  Iter= 11 NonCon=     1 RMS=1.16D-06 Max=4.25D-05 NDo=     1
 LinEq1:  Iter= 12 NonCon=     1 RMS=4.64D-07 Max=2.73D-05 NDo=     1
 LinEq1:  Iter= 13 NonCon=     1 RMS=1.77D-07 Max=5.34D-06 NDo=     1
 LinEq1:  Iter= 14 NonCon=     1 RMS=5.93D-08 Max=2.05D-06 NDo=     1
 LinEq1:  Iter= 15 NonCon=     1 RMS=2.00D-08 Max=5.05D-07 NDo=     1
 LinEq1:  Iter= 16 NonCon=     1 RMS=8.80D-09 Max=3.13D-07 NDo=     1
 LinEq1:  Iter= 17 NonCon=     1 RMS=2.55D-09 Max=1.02D-07 NDo=     1
 LinEq1:  Iter= 18 NonCon=     1 RMS=5.50D-10 Max=2.09D-08 NDo=     1
 LinEq1:  Iter= 19 NonCon=     1 RMS=1.22D-10 Max=3.85D-09 NDo=     1
 LinEq1:  Iter= 20 NonCon=     0 RMS=1.80D-11 Max=4.38D-10 NDo=     1
 Linear equations converged to 1.000D-10 1.000D-09 after    20 iterations.
          There are     1 degrees of freedom in the 1st order CPHF.  IDoFFX=0 NUNeed=     1.
 End of Minotr F.D. properties file   721 does not exist.
 End of Minotr F.D. properties file   722 does not exist.
 End of Minotr F.D. properties file   788 does not exist.
 Symmetrizing basis deriv contribution to polar:
 IMax=3 JMax=2 DiffMx= 0.00D+00
 G2DrvN: will do    26 centers at a time, making    1 passes.
 Calling FoFCou, ICntrl=  3107 FMM=F I1Cent=   0 AccDes= 0.00D+00.
 G2DrvN: will do    26 centers at a time, making    1 passes.
 Calling FoFCou, ICntrl=  3107 FMM=F I1Cent=   0 AccDes= 0.00D+00.
 G2DrvN: will do    26 centers at a time, making    1 passes.
 Calling FoFCou, ICntrl=  3107 FMM=F I1Cent=   0 AccDes= 0.00D+00.
 End of G2Drv F.D. properties file   721 does not exist.
 End of G2Drv F.D. properties file   722 does not exist.
 End of G2Drv F.D. properties file   788 does not exist.
          IDoAtm=1111111111111111111111111
          Differentiating once with respect to electric field.
                with respect to dipole field.
          Differentiating once with respect to nuclear coordinates.
 CalDSu exits because no D1Ps are significant.
          There are    78 degrees of freedom in the 1st order CPHF.  IDoFFX=6 NUNeed=    78.
     75 vectors produced by pass  0 Test12= 3.18D-14 1.28D-09 XBig12= 2.88D+02 1.28D+01.
 AX will form    75 AO Fock derivatives at one time.
     75 vectors produced by pass  1 Test12= 3.18D-14 1.28D-09 XBig12= 1.92D+01 6.93D-01.
     75 vectors produced by pass  2 Test12= 3.18D-14 1.28D-09 XBig12= 4.80D-01 1.39D-01.
     75 vectors produced by pass  3 Test12= 3.18D-14 1.28D-09 XBig12= 3.87D-03 6.49D-03.
     75 vectors produced by pass  4 Test12= 3.18D-14 1.28D-09 XBig12= 2.39D-05 5.24D-04.
     75 vectors produced by pass  5 Test12= 3.18D-14 1.28D-09 XBig12= 9.16D-08 3.13D-05.
     60 vectors produced by pass  6 Test12= 3.18D-14 1.28D-09 XBig12= 3.58D-10 1.95D-06.
     24 vectors produced by pass  7 Test12= 3.18D-14 1.28D-09 XBig12= 1.62D-12 1.38D-07.
      3 vectors produced by pass  8 Test12= 3.18D-14 1.28D-09 XBig12= 8.43D-15 8.35D-09.
      3 vectors produced by pass  9 Test12= 3.18D-14 1.28D-09 XBig12= 3.13D-14 2.46D-08.
      2 vectors produced by pass 10 Test12= 3.18D-14 1.28D-09 XBig12= 5.58D-15 1.03D-08.
 InvSVY:  IOpt=1 It=  1 EMax= 7.11D-15
 Solved reduced A of dimension   542 with    78 vectors.
 Isotropic polarizability for W=    0.000000      169.16 Bohr**3.
 End of Minotr F.D. properties file   721 does not exist.
 End of Minotr F.D. properties file   722 does not exist.
 End of Minotr F.D. properties file   788 does not exist.
 This link is doing    78 degrees of freedom
 Form MO integral derivatives with frozen-active canonical formalism.
 CISSec: MDV=   25501356356
 Doing TD-HF/TD-DFT second derivatives, IDoFFX=6 IOneXC=4 IRadAn=         1.
 Frozen orbitals handled with amplitudes over full window.
 CISAX will form    78 AO SS matrices at one time.
     75 vectors produced by pass  0 Test12= 4.46D-14 1.28D-09 XBig12= 2.56D+02 1.48D+01.
 AX will form    75 AO Fock derivatives at one time.
     75 vectors produced by pass  1 Test12= 4.46D-14 1.28D-09 XBig12= 9.08D+00 2.45D+00.
     75 vectors produced by pass  2 Test12= 4.46D-14 1.28D-09 XBig12= 2.44D+00 4.40D-01.
     75 vectors produced by pass  3 Test12= 4.46D-14 1.28D-09 XBig12= 3.39D-02 3.28D-02.
     75 vectors produced by pass  4 Test12= 4.46D-14 1.28D-09 XBig12= 3.83D-04 2.78D-03.
     75 vectors produced by pass  5 Test12= 4.46D-14 1.28D-09 XBig12= 3.36D-06 3.36D-04.
     65 vectors produced by pass  6 Test12= 4.46D-14 1.28D-09 XBig12= 2.20D-08 1.55D-05.
     51 vectors produced by pass  7 Test12= 4.46D-14 1.28D-09 XBig12= 1.38D-10 1.30D-06.
     12 vectors produced by pass  8 Test12= 4.46D-14 1.28D-09 XBig12= 8.15D-13 1.04D-07.
      2 vectors produced by pass  9 Test12= 4.46D-14 1.28D-09 XBig12= 4.55D-15 6.40D-09.
 InvSVY:  IOpt=1 It=  1 EMax= 8.75D-15
 Solved reduced A of dimension   580 with    78 vectors.
 Tx.T =  7.13D-05 for pert.     3
 Tx.T = -1.36D-05 for pert.    30
 Tx.T =  1.23D-05 for pert.    15
 Tx.T =  1.23D-05 for pert.    18
 Tx.T =  9.73D-06 for pert.    45
 Tx.T =  9.73D-06 for pert.    39
 Tx.T = -9.19D-06 for pert.    14
 Tx.T =  9.19D-06 for pert.    17
 Tx.T =  9.12D-06 for pert.    38
 Tx.T = -9.12D-06 for pert.    44
 SavDET:  read IOETrn=   770 NScale= 10 NData=  16 NLR=1 NState=    3 NDeriv=    0 LETran=      64.
 SavDET: write IOETrn=   770 NScale= 10 NData=  16 NLR=1 NState=    3 NDeriv=   78 LETran=    1312.
 TDDxLx will form    78 C1x/S1x matrices at one time.
 Interchange theorem applied.

 **********************************************************************

            Population analysis using the SCF Density.

 **********************************************************************

 Orbital symmetries:
       Occupied  (A1) (B2) (A1) (B2) (A1) (A1) (B2) (B2) (A1) (A1)
                 (B2) (A1) (B2) (A1) (A1) (B2) (A1) (A1) (B2) (B2)
                 (A1) (A1) (A1) (B2) (B2) (A1) (B2) (A1) (A1) (B2)
                 (A1) (B1) (B2) (B2) (A1) (B2) (A1) (B1) (A2) (A1)
                 (B2) (A1) (B2) (B1) (A2) (A2) (B1)
       Virtual   (B1) (B1) (A2) (A2) (B1) (A1) (A1) (B2) (A1) (B2)
                 (B1) (B2) (A1) (B2) (A1) (A2) (A1) (B1) (B2) (A1)
                 (B2) (A1) (A1) (B2) (A1) (B2) (A1) (B1) (A1) (B2)
                 (B2) (A2) (A1) (B1) (A1) (B1) (A2) (B2) (A1) (B2)
                 (A2) (B1) (B2) (A1) (B2) (A1) (B1) (A1) (B2) (A2)
                 (B2) (A1) (B2) (B1) (A1) (A2) (A1) (A1) (A1) (B1)
                 (A1) (B2) (B2) (B2) (B1) (A2) (B1) (A1) (A1) (A1)
                 (B2) (B2) (A2) (B2) (A1) (A1) (B2) (A1) (B1) (A2)
                 (B1) (B2) (A2) (B2) (A1) (B1) (B2) (A1) (A2) (A1)
                 (B2) (B1) (B2) (A1) (B1) (A2) (A1) (B2) (A1) (B2)
                 (A1) (A2) (B2) (A1) (B2) (A1) (A1) (B2) (B1) (A1)
                 (B1) (A2) (B2) (A1) (B2) (A2) (B2) (A1) (B2) (A1)
                 (B1) (B1) (B1) (A2) (B2) (A1) (A1) (A2) (B1) (A1)
                 (B2) (A2) (B1) (B2) (B2) (B1) (A2) (A1) (B2) (A1)
                 (A1) (A2) (B2) (A1) (B2) (B1) (A1) (B1) (A1) (A2)
                 (A1) (B2) (B2) (B1) (A1) (B2) (B1) (A1) (A2) (A1)
                 (B2) (B2) (A1) (B1) (B2) (A2) (A1) (A1) (B2) (B2)
                 (A2) (A1) (A1) (B1) (B2) (B2) (A1) (B2) (A1) (B1)
                 (B2) (A1) (A1) (A2) (B2) (A1) (B1) (B2) (A1) (B2)
                 (A1) (A2) (A1) (B2) (B2) (B2) (A1) (A1) (B1) (A2)
                 (B2) (A1) (B1) (A1) (B2) (B2) (A2) (A1) (B1) (A2)
                 (B1) (A1) (B1) (B2) (A2) (A1) (A2) (B1) (B2) (B2)
                 (A2) (B2) (A1) (A1) (A1) (B2) (A1) (B1) (A1) (B2)
                 (B1) (B2) (A1) (A1) (A2) (B1) (B2) (B1) (A2) (A1)
                 (B2) (B2) (A1) (B2) (B1) (A2) (B1) (A2) (A1) (B1)
                 (A2) (B2) (A2) (A1) (B1) (B1) (B2) (A1) (A2) (B1)
                 (A1) (B2) (A1) (B2) (A2) (B1) (B2) (A1) (A2) (A1)
                 (B1) (B1) (A2) (B2) (B2) (B1) (A2) (A1) (B2) (A1)
                 (A1) (B1) (A2) (B2) (A1) (A2) (B1) (B2) (B2) (A1)
                 (A1) (B2) (A1) (A2) (B1) (B2) (B1) (B2) (A1) (B2)
                 (A1) (B1) (A2) (B2) (A1) (A2) (A1) (A1) (B2) (A2)
                 (B1) (A1) (B1) (B2) (A2) (B1) (B2) (A1) (B1) (B2)
                 (A1) (A2) (A1) (A1) (B2) (A2) (B1) (B1) (B2) (A1)
                 (A2) (B1) (A2) (B2) (A1) (B2) (A1) (B1) (A1) (B2)
                 (A2) (B1) (B2) (A2) (A1) (A2) (A1) (B2) (A2) (B1)
                 (A1) (B1) (A1) (B1) (B2) (B2) (A2) (A1) (A1) (B2)
                 (B1) (A1) (A2) (B2) (A2) (A1) (B1) (B2) (A1) (A1)
                 (B1) (A2) (B2) (A2) (A1) (B1) (B2) (A2) (B1) (A1)
                 (B1) (B2) (A2) (A1) (B2) (A1) (B1) (A1) (B2) (B2)
                 (A1) (B1) (A2) (A2) (A1) (B2) (B1) (B2) (A2) (A1)
                 (B2) (A1) (B1) (B2) (A1) (A2) (A1) (B2) (B2) (A1)
                 (B2) (B1) (A2) (A1) (B2) (A1) (A1) (A2) (B1) (B2)
                 (A2) (B1) (B2) (A1) (B1) (A2) (B2) (B2) (A1) (B2)
                 (B1) (A1) (B2) (A1) (A1) (B1) (A2) (B2) (A1) (B2)
                 (A1) (B1) (A2) (B2) (A1) (A1) (B1) (B2) (B2) (A2)
                 (A1) (B2) (A2) (B1) (A2) (A1) (A1) (B2) (B1) (B1)
                 (B2) (A1) (A2) (B2) (B1) (B2) (B2) (A2) (B1) (A1)
                 (B2) (B1) (A1) (A1) (A1) (A1) (B2) (B2) (A1) (B2)
                 (A1) (B1) (A2) (A1) (B2) (B1) (B2) (A1) (A2) (B2)
                 (A1) (A1) (B2) (A1) (A1) (A1) (B2) (B2) (B2) (A1)
                 (B2) (A1) (B1) (A1) (B2) (B2) (A1) (A1) (B2) (A1)
                 (B2) (A1) (B2) (A1) (B2) (A1) (B2) (B2) (A1) (A1)
                 (B2) (B2) (A1) (A1) (A1) (B2) (A1)
 The electronic state is 1-A1.
 Alpha  occ. eigenvalues --  -10.77535 -10.73109 -10.73108 -10.72260 -10.72259
 Alpha  occ. eigenvalues --  -10.71234 -10.71234 -10.70916 -10.70916 -10.70839
 Alpha  occ. eigenvalues --  -10.69841 -10.69841 -10.69527 -10.69527  -1.16258
 Alpha  occ. eigenvalues --   -1.12288  -1.06777  -1.05578  -1.01159  -1.00035
 Alpha  occ. eigenvalues --   -0.95635  -0.90879  -0.86213  -0.85732  -0.83651
 Alpha  occ. eigenvalues --   -0.78240  -0.75785  -0.74199  -0.69350  -0.69079
 Alpha  occ. eigenvalues --   -0.68300  -0.68017  -0.67980  -0.64502  -0.64061
 Alpha  occ. eigenvalues --   -0.62821  -0.61661  -0.59945  -0.59665  -0.58898
 Alpha  occ. eigenvalues --   -0.56691  -0.54990  -0.54605  -0.52415  -0.46577
 Alpha  occ. eigenvalues --   -0.45998  -0.44440
 Alpha virt. eigenvalues --   -0.25961  -0.14401  -0.13959  -0.12486  -0.06851
 Alpha virt. eigenvalues --   -0.05510  -0.05364  -0.04073  -0.02676  -0.01624
 Alpha virt. eigenvalues --   -0.00206   0.00381   0.00577   0.01936   0.02305
 Alpha virt. eigenvalues --    0.04321   0.04505   0.07187   0.07817   0.09467
 Alpha virt. eigenvalues --    0.09933   0.10398   0.12695   0.14118   0.14134
 Alpha virt. eigenvalues --    0.15733   0.15909   0.16476   0.16718   0.16963
 Alpha virt. eigenvalues --    0.17735   0.17943   0.19442   0.19693   0.20389
 Alpha virt. eigenvalues --    0.20769   0.21984   0.22520   0.22924   0.24297
 Alpha virt. eigenvalues --    0.25252   0.26410   0.26765   0.27007   0.27445
 Alpha virt. eigenvalues --    0.28159   0.28331   0.28672   0.29116   0.29460
 Alpha virt. eigenvalues --    0.30103   0.30260   0.30722   0.31354   0.32297
 Alpha virt. eigenvalues --    0.33069   0.33136   0.34442   0.34534   0.34630
 Alpha virt. eigenvalues --    0.36031   0.37011   0.38303   0.38568   0.38707
 Alpha virt. eigenvalues --    0.39438   0.39448   0.39644   0.41047   0.43058
 Alpha virt. eigenvalues --    0.43381   0.44772   0.44959   0.45711   0.46684
 Alpha virt. eigenvalues --    0.47940   0.49075   0.49575   0.49688   0.50972
 Alpha virt. eigenvalues --    0.52917   0.53229   0.55884   0.55984   0.58078
 Alpha virt. eigenvalues --    0.58496   0.58594   0.58939   0.61194   0.61500
 Alpha virt. eigenvalues --    0.61986   0.62528   0.63205   0.63643   0.65988
 Alpha virt. eigenvalues --    0.66241   0.66749   0.67302   0.68255   0.69890
 Alpha virt. eigenvalues --    0.70258   0.71259   0.71488   0.72208   0.73980
 Alpha virt. eigenvalues --    0.75102   0.76402   0.76730   0.77210   0.79168
 Alpha virt. eigenvalues --    0.80515   0.80565   0.82065   0.83842   0.84668
 Alpha virt. eigenvalues --    0.85516   0.85870   0.86074   0.86143   0.88349
 Alpha virt. eigenvalues --    0.88660   0.88925   0.89665   0.92104   0.93142
 Alpha virt. eigenvalues --    0.93406   0.94868   0.94931   0.95328   0.95972
 Alpha virt. eigenvalues --    0.96859   0.97499   0.99248   1.01182   1.03351
 Alpha virt. eigenvalues --    1.04046   1.04766   1.05280   1.06361   1.07346
 Alpha virt. eigenvalues --    1.07790   1.09623   1.10492   1.12065   1.12306
 Alpha virt. eigenvalues --    1.12813   1.13885   1.14631   1.15384   1.15753
 Alpha virt. eigenvalues --    1.16685   1.16720   1.18019   1.18150   1.19933
 Alpha virt. eigenvalues --    1.22126   1.22148   1.22351   1.24422   1.24601
 Alpha virt. eigenvalues --    1.25699   1.26649   1.27605   1.28125   1.28826
 Alpha virt. eigenvalues --    1.29252   1.29982   1.30505   1.31918   1.32742
 Alpha virt. eigenvalues --    1.34881   1.35917   1.37243   1.37524   1.37719
 Alpha virt. eigenvalues --    1.41415   1.42318   1.42724   1.43959   1.45557
 Alpha virt. eigenvalues --    1.46756   1.47127   1.47298   1.49740   1.50615
 Alpha virt. eigenvalues --    1.56546   1.56799   1.62757   1.63330   1.65563
 Alpha virt. eigenvalues --    1.68682   1.70200   1.73327   1.76706   1.81549
 Alpha virt. eigenvalues --    1.81935   1.82206   1.86609   1.86669   1.89593
 Alpha virt. eigenvalues --    1.91228   1.92299   1.92864   1.94181   1.94823
 Alpha virt. eigenvalues --    1.96767   2.00085   2.03244   2.03659   2.04580
 Alpha virt. eigenvalues --    2.04747   2.06420   2.08379   2.09068   2.10312
 Alpha virt. eigenvalues --    2.13020   2.13503   2.15541   2.15872   2.19111
 Alpha virt. eigenvalues --    2.22979   2.23330   2.23931   2.26674   2.28510
 Alpha virt. eigenvalues --    2.28550   2.29288   2.30280   2.32105   2.32337
 Alpha virt. eigenvalues --    2.33318   2.33673   2.34837   2.35922   2.36148
 Alpha virt. eigenvalues --    2.36613   2.37091   2.38377   2.38783   2.39072
 Alpha virt. eigenvalues --    2.39426   2.43566   2.44523   2.45251   2.46802
 Alpha virt. eigenvalues --    2.48399   2.50362   2.50613   2.52949   2.53346
 Alpha virt. eigenvalues --    2.53812   2.55568   2.57302   2.57466   2.57496
 Alpha virt. eigenvalues --    2.58025   2.58538   2.59170   2.59555   2.59689
 Alpha virt. eigenvalues --    2.61498   2.61650   2.64308   2.64872   2.65397
 Alpha virt. eigenvalues --    2.66261   2.66816   2.68272   2.69214   2.70880
 Alpha virt. eigenvalues --    2.72544   2.74456   2.74557   2.75095   2.75552
 Alpha virt. eigenvalues --    2.76213   2.76375   2.78074   2.79434   2.80194
 Alpha virt. eigenvalues --    2.80221   2.81071   2.81197   2.82537   2.83682
 Alpha virt. eigenvalues --    2.84749   2.84898   2.85390   2.85610   2.85859
 Alpha virt. eigenvalues --    2.87953   2.88789   2.89039   2.89728   2.91482
 Alpha virt. eigenvalues --    2.92266   2.92479   2.92607   2.93002   2.93879
 Alpha virt. eigenvalues --    2.93980   2.95401   2.95963   2.96085   2.96911
 Alpha virt. eigenvalues --    2.98090   2.98293   2.98936   3.00172   3.01411
 Alpha virt. eigenvalues --    3.01821   3.02013   3.03334   3.03363   3.04119
 Alpha virt. eigenvalues --    3.05682   3.06101   3.06151   3.07652   3.07956
 Alpha virt. eigenvalues --    3.10709   3.12739   3.13185   3.15214   3.15332
 Alpha virt. eigenvalues --    3.15421   3.15589   3.16209   3.16981   3.17921
 Alpha virt. eigenvalues --    3.20431   3.20831   3.21005   3.21499   3.22247
 Alpha virt. eigenvalues --    3.22755   3.23545   3.24079   3.24285   3.26881
 Alpha virt. eigenvalues --    3.28997   3.29009   3.29359   3.29780   3.31370
 Alpha virt. eigenvalues --    3.33039   3.33942   3.33966   3.34659   3.36546
 Alpha virt. eigenvalues --    3.39299   3.40264   3.41137   3.43677   3.45319
 Alpha virt. eigenvalues --    3.46704   3.46951   3.49128   3.50605   3.50655
 Alpha virt. eigenvalues --    3.50703   3.53677   3.53745   3.54627   3.55962
 Alpha virt. eigenvalues --    3.56418   3.56892   3.57028   3.57471   3.59732
 Alpha virt. eigenvalues --    3.60550   3.61188   3.61737   3.61924   3.63300
 Alpha virt. eigenvalues --    3.63989   3.65419   3.66393   3.67759   3.67773
 Alpha virt. eigenvalues --    3.67915   3.68149   3.68646   3.69363   3.70842
 Alpha virt. eigenvalues --    3.72034   3.75762   3.76264   3.76748   3.78406
 Alpha virt. eigenvalues --    3.78531   3.78656   3.80620   3.83073   3.83301
 Alpha virt. eigenvalues --    3.83318   3.85177   3.85358   3.85644   3.87898
 Alpha virt. eigenvalues --    3.89309   3.89383   3.89931   3.92066   3.94416
 Alpha virt. eigenvalues --    3.95215   3.95498   3.95838   3.96830   3.97931
 Alpha virt. eigenvalues --    3.98046   3.98195   4.01309   4.01838   4.02182
 Alpha virt. eigenvalues --    4.03741   4.05667   4.05814   4.06636   4.07458
 Alpha virt. eigenvalues --    4.07662   4.08449   4.08536   4.11220   4.11413
 Alpha virt. eigenvalues --    4.12163   4.12720   4.13123   4.14276   4.15001
 Alpha virt. eigenvalues --    4.15622   4.17065   4.18573   4.18836   4.21561
 Alpha virt. eigenvalues --    4.21612   4.23824   4.24354   4.27911   4.30068
 Alpha virt. eigenvalues --    4.31146   4.32565   4.33722   4.36190   4.37422
 Alpha virt. eigenvalues --    4.40608   4.43018   4.43104   4.47203   4.50836
 Alpha virt. eigenvalues --    4.50855   4.52848   4.53394   4.53897   4.54259
 Alpha virt. eigenvalues --    4.56686   4.58062   4.58203   4.61214   4.63237
 Alpha virt. eigenvalues --    4.66448   4.66562   4.68960   4.69761   4.70311
 Alpha virt. eigenvalues --    4.76135   4.76561   4.79993   4.80236   4.81971
 Alpha virt. eigenvalues --    4.83297   4.83596   4.83865   4.86709   4.88757
 Alpha virt. eigenvalues --    4.90089   4.91496   4.93019   4.96705   4.98563
 Alpha virt. eigenvalues --    5.00364   5.02361   5.05474   5.07533   5.10775
 Alpha virt. eigenvalues --    5.16365   5.16432   5.16757   5.19485   5.23457
 Alpha virt. eigenvalues --    5.24174   5.27702   5.31949   5.33102   5.43433
 Alpha virt. eigenvalues --    5.46286   5.48552   5.50855   5.58151   5.61766
 Alpha virt. eigenvalues --    5.62716   5.64953   5.69195   5.70256   5.77941
 Alpha virt. eigenvalues --    5.78982   5.83508   5.87084   5.99743   6.11391
 Alpha virt. eigenvalues --    6.14518   6.48194   6.63215   8.16823   9.51600
 Alpha virt. eigenvalues --   11.52735  12.20481  12.44203  12.69507  12.83518
 Alpha virt. eigenvalues --   12.92917  13.06922  13.36474  14.49074  14.59335
 Alpha virt. eigenvalues --   15.09888  15.66089
          Condensed to atoms (all electrons):
               1          2          3          4          5          6
     1  C    4.936321   0.499802  -0.063185  -0.020181   0.000045   0.000001
     2  C    0.499802   4.823858   0.471416  -0.064329  -0.000003  -0.000000
     3  C   -0.063185   0.471416   4.903194   0.520302   0.000012   0.000000
     4  C   -0.020181  -0.064329   0.520302   4.913474  -0.000255   0.000012
     5  C    0.000045  -0.000003   0.000012  -0.000255   4.913474   0.520302
     6  C    0.000001  -0.000000   0.000000   0.000012   0.520302   4.903194
     7  C    0.000006  -0.000000  -0.000000  -0.000003  -0.064329   0.471416
     8  C   -0.000053   0.000006   0.000001   0.000045  -0.020181  -0.063185
     9  C   -0.065716   0.004483  -0.001422   0.005467   0.005467  -0.001422
    10  C    0.006442  -0.001565   0.007564  -0.041483  -0.041483   0.007564
    11  C    0.483547  -0.039920  -0.040340  -0.073756  -0.001952   0.000167
    12  C   -0.055847  -0.024174  -0.043072   0.414784   0.007489  -0.000436
    13  C    0.008690  -0.000132   0.000167  -0.001952  -0.073756  -0.040340
    14  C   -0.001452  -0.000053  -0.000436   0.007489   0.414784  -0.043072
    15  H    0.430503  -0.037177   0.005458  -0.000820  -0.000000   0.000000
    16  H   -0.044149   0.437385  -0.043920   0.005788   0.000000  -0.000000
    17  H    0.005791  -0.043950   0.435436  -0.041386  -0.000000   0.000000
    18  H   -0.000581   0.004698  -0.030996   0.439794  -0.000007   0.000001
    19  H   -0.000163   0.000038   0.000172  -0.001169  -0.001169   0.000172
    20  H   -0.000001  -0.000000   0.000001  -0.000007   0.439794  -0.030996
    21  H    0.000000   0.000000   0.000000  -0.000000  -0.041386   0.435436
    22  H   -0.000000   0.000000  -0.000000   0.000000   0.005788  -0.043920
    23  H    0.000016   0.000001   0.000000  -0.000000  -0.000820   0.005458
    24  H   -0.009894  -0.000080   0.000023   0.000162   0.000162   0.000023
    25  H   -0.009894  -0.000080   0.000023   0.000162   0.000162   0.000023
               7          8          9         10         11         12
     1  C    0.000006  -0.000053  -0.065716   0.006442   0.483547  -0.055847
     2  C   -0.000000   0.000006   0.004483  -0.001565  -0.039920  -0.024174
     3  C   -0.000000   0.000001  -0.001422   0.007564  -0.040340  -0.043072
     4  C   -0.000003   0.000045   0.005467  -0.041483  -0.073756   0.414784
     5  C   -0.064329  -0.020181   0.005467  -0.041483  -0.001952   0.007489
     6  C    0.471416  -0.063185  -0.001422   0.007564   0.000167  -0.000436
     7  C    4.823858   0.499802   0.004483  -0.001565  -0.000132  -0.000053
     8  C    0.499802   4.936321  -0.065716   0.006442   0.008690  -0.001452
     9  C    0.004483  -0.065716   5.048640  -0.023604   0.324365  -0.040472
    10  C   -0.001565   0.006442  -0.023604   4.873872  -0.038757   0.470717
    11  C   -0.000132   0.008690   0.324365  -0.038757   5.103021   0.340442
    12  C   -0.000053  -0.001452  -0.040472   0.470717   0.340442   5.040564
    13  C   -0.039920   0.483547   0.324365  -0.038757  -0.001732  -0.049284
    14  C   -0.024174  -0.055847  -0.040472   0.470717  -0.049284  -0.046530
    15  H    0.000001   0.000016   0.001819  -0.000069  -0.056487   0.008439
    16  H    0.000000  -0.000000  -0.000224   0.000040   0.007105  -0.000870
    17  H    0.000000   0.000000   0.000057  -0.000290  -0.000565   0.006465
    18  H   -0.000000  -0.000001  -0.000115  -0.000717   0.005074  -0.063433
    19  H    0.000038  -0.000163  -0.000192   0.417586   0.004913  -0.035232
    20  H    0.004698  -0.000581  -0.000115  -0.000717  -0.000058   0.000818
    21  H   -0.043950   0.005791   0.000057  -0.000290  -0.000005   0.000015
    22  H    0.437385  -0.044149  -0.000224   0.000040   0.000008  -0.000001
    23  H   -0.037177   0.430503   0.001819  -0.000069   0.000311  -0.000007
    24  H   -0.000080  -0.009894   0.413775  -0.002298  -0.039088   0.007783
    25  H   -0.000080  -0.009894   0.413775  -0.002298  -0.039088   0.007783
              13         14         15         16         17         18
     1  C    0.008690  -0.001452   0.430503  -0.044149   0.005791  -0.000581
     2  C   -0.000132  -0.000053  -0.037177   0.437385  -0.043950   0.004698
     3  C    0.000167  -0.000436   0.005458  -0.043920   0.435436  -0.030996
     4  C   -0.001952   0.007489  -0.000820   0.005788  -0.041386   0.439794
     5  C   -0.073756   0.414784  -0.000000   0.000000  -0.000000  -0.000007
     6  C   -0.040340  -0.043072   0.000000  -0.000000   0.000000   0.000001
     7  C   -0.039920  -0.024174   0.000001   0.000000   0.000000  -0.000000
     8  C    0.483547  -0.055847   0.000016  -0.000000   0.000000  -0.000001
     9  C    0.324365  -0.040472   0.001819  -0.000224   0.000057  -0.000115
    10  C   -0.038757   0.470717  -0.000069   0.000040  -0.000290  -0.000717
    11  C   -0.001732  -0.049284  -0.056487   0.007105  -0.000565   0.005074
    12  C   -0.049284  -0.046530   0.008439  -0.000870   0.006465  -0.063433
    13  C    5.103021   0.340442   0.000311   0.000008  -0.000005  -0.000058
    14  C    0.340442   5.040564  -0.000007  -0.000001   0.000015   0.000818
    15  H    0.000311  -0.000007   0.516495  -0.006090  -0.000196   0.000034
    16  H    0.000008  -0.000001  -0.006090   0.503146  -0.005955  -0.000154
    17  H   -0.000005   0.000015  -0.000196  -0.005955   0.508243  -0.006400
    18  H   -0.000058   0.000818   0.000034  -0.000154  -0.006400   0.518112
    19  H    0.004913  -0.035232   0.000011  -0.000002  -0.000027   0.002692
    20  H    0.005074  -0.063433   0.000000   0.000000   0.000000   0.000003
    21  H   -0.000565   0.006465  -0.000000   0.000000  -0.000000   0.000000
    22  H    0.007105  -0.000870  -0.000000  -0.000000   0.000000   0.000000
    23  H   -0.056487   0.008439   0.000010  -0.000000  -0.000000   0.000000
    24  H   -0.039088   0.007783   0.000415  -0.000009  -0.000000   0.000013
    25  H   -0.039088   0.007783   0.000415  -0.000009  -0.000000   0.000013
              19         20         21         22         23         24
     1  C   -0.000163  -0.000001   0.000000  -0.000000   0.000016  -0.009894
     2  C    0.000038  -0.000000   0.000000   0.000000   0.000001  -0.000080
     3  C    0.000172   0.000001   0.000000  -0.000000   0.000000   0.000023
     4  C   -0.001169  -0.000007  -0.000000   0.000000  -0.000000   0.000162
     5  C   -0.001169   0.439794  -0.041386   0.005788  -0.000820   0.000162
     6  C    0.000172  -0.030996   0.435436  -0.043920   0.005458   0.000023
     7  C    0.000038   0.004698  -0.043950   0.437385  -0.037177  -0.000080
     8  C   -0.000163  -0.000581   0.005791  -0.044149   0.430503  -0.009894
     9  C   -0.000192  -0.000115   0.000057  -0.000224   0.001819   0.413775
    10  C    0.417586  -0.000717  -0.000290   0.000040  -0.000069  -0.002298
    11  C    0.004913  -0.000058  -0.000005   0.000008   0.000311  -0.039088
    12  C   -0.035232   0.000818   0.000015  -0.000001  -0.000007   0.007783
    13  C    0.004913   0.005074  -0.000565   0.007105  -0.056487  -0.039088
    14  C   -0.035232  -0.063433   0.006465  -0.000870   0.008439   0.007783
    15  H    0.000011   0.000000  -0.000000  -0.000000   0.000010   0.000415
    16  H   -0.000002   0.000000   0.000000  -0.000000  -0.000000  -0.000009
    17  H   -0.000027   0.000000  -0.000000   0.000000  -0.000000  -0.000000
    18  H    0.002692   0.000003   0.000000   0.000000   0.000000   0.000013
    19  H    0.480109   0.002692  -0.000027  -0.000002   0.000011   0.000016
    20  H    0.002692   0.518112  -0.006400  -0.000154   0.000034   0.000013
    21  H   -0.000027  -0.006400   0.508243  -0.005955  -0.000196  -0.000000
    22  H   -0.000002  -0.000154  -0.005955   0.503146  -0.006090  -0.000009
    23  H    0.000011   0.000034  -0.000196  -0.006090   0.516495   0.000415
    24  H    0.000016   0.000013  -0.000000  -0.000009   0.000415   0.499346
    25  H    0.000016   0.000013  -0.000000  -0.000009   0.000415  -0.032343
              25
     1  C   -0.009894
     2  C   -0.000080
     3  C    0.000023
     4  C    0.000162
     5  C    0.000162
     6  C    0.000023
     7  C   -0.000080
     8  C   -0.009894
     9  C    0.413775
    10  C   -0.002298
    11  C   -0.039088
    12  C    0.007783
    13  C   -0.039088
    14  C    0.007783
    15  H    0.000415
    16  H   -0.000009
    17  H   -0.000000
    18  H    0.000013
    19  H    0.000016
    20  H    0.000013
    21  H   -0.000000
    22  H   -0.000009
    23  H    0.000415
    24  H   -0.032343
    25  H    0.499346
 Mulliken charges:
               1
     1  C   -0.100047
     2  C   -0.030224
     3  C   -0.120395
     4  C   -0.062137
     5  C   -0.062137
     6  C   -0.120395
     7  C   -0.030224
     8  C   -0.100047
     9  C   -0.308877
    10  C   -0.067016
    11  C    0.103522
    12  C    0.055567
    13  C    0.103522
    14  C    0.055567
    15  H    0.136918
    16  H    0.147910
    17  H    0.142767
    18  H    0.131211
    19  H    0.159997
    20  H    0.131211
    21  H    0.142767
    22  H    0.147910
    23  H    0.136918
    24  H    0.202856
    25  H    0.202856
 Sum of Mulliken charges =   1.00000
 Mulliken charges with hydrogens summed into heavy atoms:
               1
     1  C    0.036871
     2  C    0.117686
     3  C    0.022372
     4  C    0.069074
     5  C    0.069074
     6  C    0.022372
     7  C    0.117686
     8  C    0.036871
     9  C    0.096835
    10  C    0.092981
    11  C    0.103522
    12  C    0.055567
    13  C    0.103522
    14  C    0.055567
 APT charges:
               1
     1  C    1.915024
     2  C    0.384774
     3  C    1.731420
     4  C   -2.267814
     5  C   -2.267815
     6  C    1.731420
     7  C    0.384774
     8  C    1.915024
     9  C    0.369193
    10  C   -1.534609
    11  C   -2.187265
    12  C    0.718829
    13  C   -2.187265
    14  C    0.718829
    15  H    0.068655
    16  H    0.074290
    17  H    0.131364
    18  H    0.077266
    19  H    0.061228
    20  H    0.077266
    21  H    0.131364
    22  H    0.074290
    23  H    0.068655
    24  H    0.405552
    25  H    0.405552
 Sum of APT charges =   1.00000
 APT charges with hydrogens summed into heavy atoms:
               1
     1  C    1.983679
     2  C    0.459064
     3  C    1.862784
     4  C   -2.190549
     5  C   -2.190549
     6  C    1.862784
     7  C    0.459064
     8  C    1.983679
     9  C    1.180296
    10  C   -1.473381
    11  C   -2.187265
    12  C    0.718829
    13  C   -2.187265
    14  C    0.718829
 Electronic spatial extent (au):  <R**2>=           2855.3336
 Charge=              1.0000 electrons
 Dipole moment (field-independent basis, Debye):
    X=             -0.0000    Y=             -0.0000    Z=             -0.1964  Tot=              0.1964
 Quadrupole moment (field-independent basis, Debye-Ang):
   XX=            -83.3715   YY=            -30.9534   ZZ=            -56.4108
   XY=              0.0000   XZ=             -0.0000   YZ=              0.0000
 Traceless Quadrupole moment (field-independent basis, Debye-Ang):
   XX=            -26.4596   YY=             25.9585   ZZ=              0.5011
   XY=              0.0000   XZ=             -0.0000   YZ=              0.0000
 Octapole moment (field-independent basis, Debye-Ang**2):
  XXX=              0.0000  YYY=              0.0000  ZZZ=             -5.2306  XYY=             -0.0000
  XXY=              0.0000  XXZ=              2.9613  XZZ=              0.0000  YZZ=             -0.0000
  YYZ=              5.1301  XYZ=             -0.0000
 Hexadecapole moment (field-independent basis, Debye-Ang**3):
 XXXX=            -97.6082 YYYY=          -2120.8433 ZZZZ=           -609.7352 XXXY=             -0.0000
 XXXZ=             -0.0000 YYYX=             -0.0000 YYYZ=              0.0000 ZZZX=             -0.0000
 ZZZY=              0.0000 XXYY=           -584.5656 XXZZ=           -144.3251 YYZZ=           -508.0819
 XXYZ=              0.0000 YYXZ=             -0.0000 ZZXY=             -0.0000
 N-N= 7.811965093996D+02 E-N=-2.797904894727D+03  KE= 5.364407535090D+02
 Symmetry A1   KE= 2.949899058004D+02
 Symmetry A2   KE= 6.448127014637D+00
 Symmetry B1   KE= 8.187137097300D+00
 Symmetry B2   KE= 2.268155835966D+02
  Exact polarizability:      69.019       0.000     860.381       0.000      -0.000     154.549
 Approx polarizability:     102.924       0.000     336.751       0.000      -0.000     228.583
 Calling FoFJK, ICntrl=  10105127 FMM=F ISym2X=1 I1Cent= 0 IOpClX= 0 NMat=1 NMatS=1 NMatT=0.
 Calling FoFJK, ICntrl=  10002127 FMM=F ISym2X=1 I1Cent= 0 IOpClX= 0 NMat=1 NMatS=1 NMatT=0.
 Full mass-weighted force constant matrix:
 Low frequencies --- -409.4907   -5.8704   -5.5288   -0.0007   -0.0006    0.0005
 Low frequencies ---   14.3026   59.1967  106.8035
 ******    1 imaginary frequencies (negative Signs) ****** 
 Diagonal vibrational polarizability:
       18.8243921    4063.2043919       2.3555517
 Harmonic frequencies (cm**-1), IR intensities (KM/Mole), Raman scattering
 activities (A**4/AMU), depolarization ratios for plane and unpolarized
 incident light, reduced masses (AMU), force constants (mDyne/A),
 and normal coordinates:
                           1         2         3         4         5
                          B2        B1        A2        B1        A2
       Frequencies ---  -409.4903   59.1670  106.8035  199.1888  221.9958
    Reduced masses ---     5.8264    3.8582    3.6330    1.9787    4.6535
   Force constants ---     0.5756    0.0080    0.0244    0.0463    0.1351
    IR Intensities --- 22334.9599    0.1923    0.0000   10.7344    0.0000
 Coord Atom Element:
   1     1     6         -0.00000  -0.04060   0.20292  -0.08581   0.14503
   2     1     6         -0.16494   0.00000   0.00000   0.00000  -0.00000
   3     1     6          0.00135  -0.00000   0.00000  -0.00000  -0.00000
   1     2     6         -0.00000  -0.18803   0.12141  -0.01847  -0.15124
   2     2     6         -0.18307   0.00000  -0.00000   0.00000  -0.00000
   3     2     6         -0.07532  -0.00000   0.00000  -0.00000   0.00000
   1     3     6         -0.00000  -0.16616  -0.12636   0.10431  -0.13634
   2     3     6         -0.09128   0.00000  -0.00000   0.00000   0.00000
   3     3     6         -0.15674   0.00000  -0.00000  -0.00000   0.00000
   1     4     6          0.00000  -0.01005  -0.20241   0.03659   0.14946
   2     4     6          0.19868  -0.00000  -0.00000  -0.00000   0.00000
   3     4     6         -0.08256   0.00000  -0.00000   0.00000   0.00000
   1     5     6          0.00000  -0.01005   0.20241   0.03659  -0.14946
   2     5     6          0.19868  -0.00000  -0.00000   0.00000  -0.00000
   3     5     6          0.08256  -0.00000  -0.00000  -0.00000   0.00000
   1     6     6         -0.00000  -0.16616   0.12636   0.10431   0.13634
   2     6     6         -0.09128   0.00000  -0.00000   0.00000  -0.00000
   3     6     6          0.15674  -0.00000   0.00000  -0.00000   0.00000
   1     7     6         -0.00000  -0.18803  -0.12141  -0.01847   0.15124
   2     7     6         -0.18307   0.00000   0.00000   0.00000   0.00000
   3     7     6          0.07532  -0.00000  -0.00000  -0.00000   0.00000
   1     8     6          0.00000  -0.04060  -0.20292  -0.08581  -0.14503
   2     8     6         -0.16494   0.00000   0.00000  -0.00000   0.00000
   3     8     6         -0.00135   0.00000  -0.00000   0.00000   0.00000
   1     9     6          0.00000   0.21894   0.00000   0.15804  -0.00000
   2     9     6         -0.08343   0.00000   0.00000  -0.00000  -0.00000
   3     9     6         -0.00000   0.00000   0.00000   0.00000  -0.00000
   1    10     6          0.00000   0.19477  -0.00000  -0.09955  -0.00000
   2    10     6          0.28854  -0.00000   0.00000  -0.00000   0.00000
   3    10     6         -0.00000   0.00000   0.00000   0.00000  -0.00000
   1    11     6         -0.00000   0.09469   0.05999  -0.05123   0.20313
   2    11     6          0.09153  -0.00000   0.00000  -0.00000  -0.00000
   3    11     6          0.11260  -0.00000   0.00000   0.00000  -0.00000
   1    12     6         -0.00000   0.11420  -0.05440  -0.06456   0.19933
   2    12     6          0.08500  -0.00000   0.00000  -0.00000   0.00000
   3    12     6         -0.01437   0.00000  -0.00000   0.00000  -0.00000
   1    13     6         -0.00000   0.09470  -0.05999  -0.05123  -0.20313
   2    13     6          0.09153  -0.00000   0.00000  -0.00000   0.00000
   3    13     6         -0.11260   0.00000  -0.00000   0.00000  -0.00000
   1    14     6         -0.00000   0.11420   0.05440  -0.06456  -0.19933
   2    14     6          0.08500  -0.00000   0.00000  -0.00000  -0.00000
   3    14     6          0.01437  -0.00000  -0.00000   0.00000  -0.00000
   1    15     1          0.00000  -0.03658   0.36173  -0.12011   0.21025
   2    15     1         -0.04797   0.00000   0.00000   0.00000  -0.00000
   3    15     1         -0.00003  -0.00000   0.00000  -0.00000  -0.00000
   1    16     1         -0.00000  -0.30789   0.23236  -0.02069  -0.35397
   2    16     1         -0.17614   0.00000  -0.00000   0.00000  -0.00000
   3    16     1         -0.06953   0.00000   0.00000  -0.00000   0.00000
   1    17     1          0.00000  -0.26873  -0.23672   0.23301  -0.32693
   2    17     1         -0.01063   0.00000  -0.00000  -0.00000   0.00000
   3    17     1         -0.01611  -0.00000   0.00000  -0.00000   0.00000
   1    18     1          0.00000  -0.00718  -0.37149   0.08692   0.18855
   2    18     1          0.09394  -0.00000  -0.00000  -0.00000   0.00000
   3    18     1         -0.07804   0.00000  -0.00000   0.00000   0.00000
   1    19     1          0.00000   0.22979  -0.00000  -0.12416  -0.00000
[...]
 0.,0.00057903,0.,0.,0.01744864,0.,0.,-0.05303274,0.,0.,-0.07361232,0.,
 0.,0.13889164,0.06445836,0.02296660,0.,0.01684822,0.00032335,0.,0.0565
 0906,0.05256079,0.,-0.08996673,-0.00910323,0.,-0.04754394,-0.02663032,
 0.,0.03474976,-0.02442785,0.,-0.03826232,-0.01511548,0.,-0.19283555,0.
 08995223,0.,-0.18601531,-0.06365963,0.,-0.05861023,0.03972926,0.,-0.10
 640030,-0.05194881,0.,0.03751552,0.00637660,0.,0.58841464,-0.01637706,
 -0.01833913,0.,-0.02128484,0.02254178,0.,-0.03915237,-0.04448734,0.,0.
 04480630,0.00658894,0.,-0.02169034,-0.02931694,0.,-0.01071908,0.001325
 64,0.,0.00109465,0.03862693,0.,0.02127514,-0.15737658,0.,-0.07329526,-
 0.12880967,0.,0.08241553,-0.02999265,0.,0.05194879,0.06249954,0.,-0.02
 158167,-0.03885680,0.,0.03454443,0.60591185,0.,0.,0.00292915,0.,0.,-0.
 00093752,0.,0.,-0.00074580,0.,0.,-0.00089385,0.,0.,0.00439496,0.,0.,-0
 .00576404,0.,0.,0.00963698,0.,0.,-0.06679271,0.,0.,-0.06718999,0.,0.,0
 .00609990,0.,0.,0.00074201,0.,0.,-0.00104240,0.,0.,0.16940288,-0.03998
 805,-0.00643029,0.,0.00189255,-0.00629034,0.,-0.02322634,-0.02172252,0
 .,0.05061112,-0.00350254,0.,-0.20026934,-0.11553585,0.,-0.08391749,0.0
 5701936,0.,-0.01129214,-0.03159273,0.,-0.01202894,0.03606287,0.,-0.002
 56059,-0.02590846,0.,-0.18660050,0.08145155,0.,0.03751553,0.02158166,0
 .,-0.08269459,0.00123441,0.,-0.09025879,-0.00903510,0.,0.65692668,-0.0
 0995512,0.00752555,0.,0.01779534,-0.03004936,0.,0.01923929,0.02869477,
 0.,-0.01206689,-0.00689582,0.,-0.08224608,-0.17734253,0.,0.00450557,0.
 02919009,0.,-0.01690393,-0.02065330,0.,0.07101550,-0.03189203,0.,-0.01
 153225,-0.01812944,0.,0.03957940,-0.16169047,0.,-0.00637656,-0.0388568
 0,0.,-0.00123440,0.06556552,0.,-0.04202546,-0.24656875,0.,0.02391809,0
 .62395219,0.,0.,0.00057905,0.,0.,-0.00037804,0.,0.,-0.00101784,0.,0.,0
 .00362847,0.,0.,-0.06598625,0.,0.,0.00754078,0.,0.,-0.00119524,0.,0.,0
 .00802036,0.,0.,0.01744863,0.,0.,-0.05303278,0.,0.,-0.00104236,0.,0.,0
 .00301180,0.,0.,-0.07361228,0.,0.,0.13889157,-0.06066889,0.00104659,0.
 ,0.00563916,0.02793781,0.,-0.00486050,0.00298280,0.,-0.00146643,0.0000
 0928,0.,-0.00022802,0.00006724,0.,0.00010176,-0.00006214,0.,-0.0000056
 2,-0.00001264,0.,0.00023422,-0.00004431,0.,0.00128845,-0.00045517,0.,0
 .00058860,-0.00140461,0.,0.00358224,-0.02813835,0.,-0.00479370,-0.0019
 2263,0.,-0.00044773,0.00011973,0.,0.00032977,0.00005035,0.,0.06017217,
 0.00116585,-0.34410260,0.,-0.00277096,-0.00890982,0.,0.00258470,-0.000
 19864,0.,0.00003747,0.00061450,0.,0.00015712,-0.00004223,0.,-0.0003386
 8,0.00041745,0.,-0.00028317,-0.00030224,0.,-0.00002241,0.00013566,0.,0
 .00124661,0.00119691,0.,0.00090706,-0.00051943,0.,0.00212870,-0.010574
 12,0.,-0.00242025,0.00018471,0.,-0.00000394,-0.00062944,0.,0.00014909,
 0.00066044,0.,-0.00084293,0.36186864,0.,0.,-0.04156679,0.,0.,0.0095038
 9,0.,0.,0.00600046,0.,0.,-0.00085058,0.,0.,-0.00004013,0.,0.,0.0000241
 6,0.,0.,-0.00018293,0.,0.,0.00036959,0.,0.,-0.00112511,0.,0.,0.0005070
 9,0.,0.,0.00508847,0.,0.,0.00412923,0.,0.,0.00002503,0.,0.,-0.00012388
 ,0.,0.,0.02394751,-0.01690732,-0.01431155,0.,-0.27987445,-0.12691478,0
 .,0.00627611,0.00293132,0.,0.00030763,0.00104504,0.,-0.00105563,0.0000
 1741,0.,0.00047026,-0.00041879,0.,0.00001796,-0.00030135,0.,0.00081627
 ,-0.00025991,0.,-0.00043328,-0.00087154,0.,-0.00045025,-0.00012613,0.,
 -0.00286051,0.00344352,0.,0.00053946,0.00048299,0.,-0.00092013,0.00055
 098,0.,0.00047101,0.00035987,0.,0.00087992,0.00001609,0.,0.29182540,0.
 01726291,0.01272902,0.,-0.12705616,-0.13272681,0.,-0.02714356,-0.00943
 174,0.,-0.00012703,-0.00572049,0.,-0.00113643,0.00016577,0.,0.00085638
 ,-0.00088129,0.,0.00039440,0.00016393,0.,0.00091384,-0.00023726,0.,0.0
 0079463,0.00070151,0.,-0.00100987,0.00019958,0.,0.00246672,-0.00215608
 ,0.,0.00116597,-0.00041083,0.,-0.00098139,0.00057741,0.,0.00030598,-0.
 00045323,0.,-0.00046318,0.00065117,0.,0.13447935,0.13622988,0.,0.,0.00
 389959,0.,0.,-0.03909989,0.,0.,0.00509946,0.,0.,0.00767935,0.,0.,0.000
 02551,0.,0.,-0.00007807,0.,0.,-0.00011079,0.,0.,0.00004862,0.,0.,0.000
 18138,0.,0.,-0.00090123,0.,0.,0.00656031,0.,0.,-0.00140431,0.,0.,0.000
 08733,0.,0.,0.00020584,0.,0.,-0.00362543,0.,0.,0.02576681,-0.00026722,
 -0.00135082,0.,0.00618100,-0.00308232,0.,-0.27418050,0.12780422,0.,-0.
 01612641,0.01510037,0.,0.00171009,-0.00003868,0.,-0.00099917,0.0008562
 9,0.,-0.00018990,0.00027339,0.,-0.00146667,0.00035647,0.,-0.00031730,0
 .00002965,0.,0.00060767,0.00110675,0.,0.00153106,-0.00007033,0.,-0.003
 19170,-0.00375817,0.,0.00148761,-0.00067272,0.,-0.00099979,-0.00039817
 ,0.,0.00023969,-0.00026476,0.,0.00051505,0.00026612,0.,0.28502014,-0.0
 0040870,-0.00609697,0.,0.02711721,-0.00892656,0.,0.12902992,-0.1383716
 5,0.,-0.01637413,0.01236811,0.,-0.00008931,0.00005494,0.,-0.00010227,0
 .00011762,0.,-0.00009029,-0.00018559,0.,0.00008573,0.00004097,0.,0.000
 17176,0.00023755,0.,-0.00012476,0.00076299,0.,-0.00064349,-0.00046162,
 0.,-0.00361856,-0.00187883,0.,0.00002100,-0.00032338,0.,-0.00021646,0.
 00015845,0.,0.00137721,-0.00050456,0.,-0.00025716,0.00102792,0.,-0.136
 14210,0.14136668,0.,0.,0.00712622,0.,0.,0.00956609,0.,0.,-0.04277714,0
 .,0.,0.00610573,0.,0.,-0.00033441,0.,0.,-0.00042227,0.,0.,-0.00037047,
 0.,0.,0.00053623,0.,0.,0.00017009,0.,0.,-0.00003485,0.,0.,-0.00152081,
 0.,0.,0.00420493,0.,0.,0.00057365,0.,0.,0.00013458,0.,0.,-0.00156357,0
 .,0.,-0.00411306,0.,0.,0.02481089,-0.00150321,0.00008794,0.,-0.0048437
 6,-0.00262155,0.,0.00473371,-0.02865016,0.,-0.06048970,0.00197922,0.,-
 0.00008601,-0.00002519,0.,-0.00013938,0.00018166,0.,-0.00018161,-0.000
 34181,0.,0.00015820,-0.00001302,0.,0.00040519,0.00116651,0.,0.00168834
 ,0.00155104,0.,-0.00472682,0.00263754,0.,0.00414893,0.02694658,0.,0.00
 044184,-0.00011286,0.,0.00001966,-0.00001140,0.,0.00013293,-0.00000140
 ,0.,0.00021983,-0.00135138,0.,0.00086783,0.00040169,0.,0.06012080,0.00
 043754,0.00095412,0.,-0.00205310,0.00015573,0.,0.00298669,-0.00859428,
 0.,0.00110092,-0.34684963,0.,-0.00058708,0.00020448,0.,0.00085751,-0.0
 0096394,0.,0.00058692,0.00069682,0.,0.00026584,-0.00030672,0.,-0.00041
 253,-0.00033426,0.,-0.00206801,0.00111526,0.,0.00164988,-0.00065230,0.
 ,-0.00186182,-0.00991292,0.,-0.00098639,0.00115416,0.,0.00015598,-0.00
 094063,0.,-0.00001327,-0.00005814,0.,0.00024244,-0.00047583,0.,-0.0000
 4490,0.00065511,0.,-0.00142156,0.36400842,0.,0.,-0.00101565,0.,0.,0.00
 378376,0.,0.,0.00775176,0.,0.,-0.04283489,0.,0.,0.00006141,0.,0.,-0.00
 010930,0.,0.,-0.00000688,0.,0.,-0.00010345,0.,0.,-0.00433677,0.,0.,-0.
 00348030,0.,0.,0.00737472,0.,0.,0.00949939,0.,0.,0.00018268,0.,0.,0.00
 050656,0.,0.,0.00053336,0.,0.,-0.00035310,0.,0.,-0.00244388,0.,0.,0.02
 337252,0.00026768,-0.00147110,0.,0.00008596,-0.00039178,0.,0.00004858,
 0.00051076,0.,0.00207021,-0.00175351,0.,0.00207021,0.00175351,0.,0.000
 04857,-0.00051075,0.,0.00008596,0.00039178,0.,0.00026768,0.00147110,0.
 ,-0.00045241,0.,0.,-0.05947237,0.,0.,-0.00503668,-0.00206178,0.,0.0038
 1605,-0.02563832,0.,-0.00503668,0.00206178,0.,0.00381604,0.02563832,0.
 ,-0.00038007,-0.00016754,0.,-0.00000927,0.00006947,0.,-0.00003138,-0.0
 0000802,0.,-0.00050507,0.00070284,0.,0.05919430,0.00033367,-0.00070264
 ,0.,0.00012474,0.00030178,0.,-0.00032335,0.00004232,0.,0.00142490,0.00
 087423,0.,-0.00142491,0.00087423,0.,0.00032335,0.00004232,0.,-0.000124
 74,0.00030178,0.,-0.00033367,-0.00070264,0.,0.,0.00051818,0.,0.,-0.349
 80891,0.,-0.00175093,0.00072920,0.,0.00194322,-0.01031034,0.,0.0017509
 3,0.00072920,0.,-0.00194322,-0.01031033,0.,-0.00017319,-0.00004721,0.,
 -0.00002595,0.00002733,0.,-0.00002173,-0.00002024,0.,-0.00069872,0.000
 27098,0.,0.,0.36700878,0.,0.,0.00024843,0.,0.,0.00022612,0.,0.,-0.0002
 3727,0.,0.,-0.00241647,0.,0.,-0.00241647,0.,0.,-0.00023727,0.,0.,0.000
 22611,0.,0.,0.00024844,0.,0.,-0.00025545,0.,0.,-0.02698735,0.,0.,0.003
 87027,0.,0.,0.00362517,0.,0.,0.00387028,0.,0.,0.00362518,0.,0.,-0.0005
 2662,0.,0.,0.00006554,0.,0.,0.00005524,0.,0.,0.00055473,0.,0.,0.016362
 69,0.00015819,0.00001302,0.,-0.00018160,0.00034180,0.,-0.00013938,-0.0
 0018167,0.,-0.00008601,0.00002519,0.,-0.06048969,-0.00197922,0.,0.0047
 3371,0.02865016,0.,-0.00484375,0.00262156,0.,-0.00150322,-0.00008794,0
 .,0.00040519,-0.00116651,0.,0.00168834,-0.00155104,0.,0.00044184,0.000
 11286,0.,0.00001966,0.00001141,0.,-0.00472682,-0.00263754,0.,0.0041489
 3,-0.02694658,0.,0.00002453,0.00001810,0.,-0.00001279,0.00000986,0.,0.
 00000738,0.00000012,0.,-0.00005589,0.00001843,0.,-0.00050507,0.0006987
 2,0.,0.06012081,-0.00026584,-0.00030672,0.,-0.00058692,0.00069682,0.,-
 0.00085751,-0.00096393,0.,0.00058708,0.00020447,0.,-0.00110093,-0.3468
 4963,0.,-0.00298669,-0.00859429,0.,0.00205310,0.00015573,0.,-0.0004375
 3,0.00095412,0.,0.00041253,-0.00033426,0.,0.00206801,0.00111526,0.,0.0
 0098639,0.00115416,0.,-0.00015598,-0.00094063,0.,-0.00164989,-0.000652
 30,0.,0.00186182,-0.00991291,0.,0.00002026,-0.00001332,0.,-0.00000766,
 0.00002080,0.,-0.00000684,-0.00000581,0.,-0.00001843,0.00004272,0.,-0.
 00070284,0.00027098,0.,0.00142156,0.36400842,0.,0.,-0.00010345,0.,0.,-
 0.00000689,0.,0.,-0.00010930,0.,0.,0.00006142,0.,0.,-0.04283492,0.,0.,
 0.00775176,0.,0.,0.00378379,0.,0.,-0.00101565,0.,0.,-0.00433676,0.,0.,
 -0.00348027,0.,0.,0.00018267,0.,0.,0.00050657,0.,0.,0.00737469,0.,0.,0
 .00949941,0.,0.,-0.00000338,0.,0.,-0.00000206,0.,0.,0.00010029,0.,0.,-
 0.00011558,0.,0.,0.00055473,0.,0.,0.02337252,-0.00146667,-0.00035647,0
 .,-0.00018991,-0.00027339,0.,-0.00099917,-0.00085629,0.,0.00171009,0.0
 0003868,0.,-0.01612641,-0.01510037,0.,-0.27418050,-0.12780422,0.,0.006
 18100,0.00308232,0.,-0.00026722,0.00135082,0.,-0.00031730,-0.00002965,
 0.,0.00060767,-0.00110675,0.,0.00148761,0.00067272,0.,-0.00099979,0.00
 039817,0.,0.00153106,0.00007032,0.,-0.00319170,0.00375817,0.,-0.000002
 05,-0.00000501,0.,0.00002077,0.00001695,0.,-0.00004055,-0.00000562,0.,
 0.00000738,0.00000684,0.,-0.00003138,0.00002173,0.,0.00086783,0.000044
 90,0.,0.28502014,-0.00008573,0.00004097,0.,0.00009029,-0.00018559,0.,0
 .00010227,0.00011762,0.,0.00008931,0.00005495,0.,0.01637413,0.01236811
 ,0.,-0.12902992,-0.13837165,0.,-0.02711721,-0.00892656,0.,0.00040870,-
 0.00609697,0.,-0.00017176,0.00023755,0.,0.00012476,0.00076299,0.,-0.00
 002101,-0.00032338,0.,0.00021646,0.00015845,0.,0.00064349,-0.00046162,
 0.,0.00361856,-0.00187883,0.,0.00000554,0.00000552,0.,0.00000059,-0.00
 000082,0.,0.00000562,0.00000847,0.,-0.00000012,-0.00000581,0.,0.000008
 02,-0.00002024,0.,-0.00040169,0.00065512,0.,0.13614210,0.14136668,0.,0
 .,0.00053624,0.,0.,-0.00037049,0.,0.,-0.00042227,0.,0.,-0.00033440,0.,
 0.,0.00610575,0.,0.,-0.04277714,0.,0.,0.00956608,0.,0.,0.00712623,0.,0
 .,0.00017008,0.,0.,-0.00003492,0.,0.,0.00057369,0.,0.,0.00013457,0.,0.
 ,-0.00152078,0.,0.,0.00420493,0.,0.,0.00002541,0.,0.,0.00003792,0.,0.,
 0.00031299,0.,0.,0.00010029,0.,0.,0.00005524,0.,0.,-0.00244388,0.,0.,0
 .02481089,0.00081627,0.00025991,0.,0.00001796,0.00030135,0.,0.00047026
 ,0.00041879,0.,-0.00105563,-0.00001741,0.,0.00030763,-0.00104504,0.,0.
 00627611,-0.00293132,0.,-0.27987445,0.12691478,0.,-0.01690732,0.014311
 55,0.,-0.00043328,0.00087154,0.,-0.00045025,0.00012613,0.,-0.00092013,
 -0.00055098,0.,0.00047101,-0.00035987,0.,-0.00286051,-0.00344352,0.,0.
 00053946,-0.00048299,0.,0.00000714,0.00000435,0.,-0.00002845,-0.000000
 05,0.,0.00002077,-0.00000059,0.,-0.00001279,0.00000766,0.,-0.00000926,
 0.00002595,0.,0.00021983,-0.00024244,0.,0.00051505,0.00025716,0.,0.291
 82540,-0.00091384,-0.00023726,0.,-0.00039440,0.00016393,0.,-0.00085638
 ,-0.00088129,0.,0.00113643,0.00016577,0.,0.00012703,-0.00572049,0.,0.0
 2714356,-0.00943174,0.,0.12705616,-0.13272681,0.,-0.01726291,0.0127290
 2,0.,-0.00079463,0.00070151,0.,0.00100987,0.00019958,0.,0.00098139,0.0
 0057741,0.,-0.00030598,-0.00045323,0.,-0.00246672,-0.00215608,0.,-0.00
 116597,-0.00041083,0.,0.00000755,-0.00000381,0.,0.00000005,0.00002583,
 0.,-0.00001695,-0.00000082,0.,-0.00000986,0.00002080,0.,-0.00006948,0.
 00002733,0.,0.00135138,-0.00047583,0.,-0.00026612,0.00102792,0.,-0.134
 47936,0.13622988,0.,0.,0.00004862,0.,0.,-0.00011079,0.,0.,-0.00007806,
 0.,0.,0.00002552,0.,0.,0.00767934,0.,0.,0.00509946,0.,0.,-0.03909989,0
 .,0.,0.00389959,0.,0.,0.00018138,0.,0.,-0.00090124,0.,0.,0.00008733,0.
 ,0.,0.00020584,0.,0.,0.00656032,0.,0.,-0.00140430,0.,0.,0.00002495,0.,
 0.,0.00003583,0.,0.,0.00003791,0.,0.,-0.00000206,0.,0.,0.00006555,0.,0
 .,-0.00035310,0.,0.,-0.00411306,0.,0.,0.02576681,0.00023422,0.00004431
 ,0.,-0.00000562,0.00001264,0.,0.00010176,0.00006214,0.,-0.00022802,-0.
 00006724,0.,-0.00146643,-0.00000928,0.,-0.00486050,-0.00298280,0.,0.00
 563916,-0.02793781,0.,-0.06066888,-0.00104659,0.,0.00128845,0.00045517
 ,0.,0.00058860,0.00140461,0.,-0.00044774,-0.00011973,0.,0.00032977,-0.
 00005036,0.,0.00358224,0.02813835,0.,-0.00479370,0.00192263,0.,-0.0000
 4255,-0.00001049,0.,0.00000714,-0.00000755,0.,-0.00000205,-0.00000554,
 0.,0.00002453,-0.00002026,0.,-0.00038007,0.00017319,0.,0.00013293,0.00
 001327,0.,0.00023969,-0.00137720,0.,0.00087992,0.00046318,0.,0.0601721
 7,0.00002241,0.00013566,0.,0.00028317,-0.00030225,0.,0.00033868,0.0004
 1746,0.,-0.00015712,-0.00004223,0.,-0.00003747,0.00061450,0.,-0.002584
 70,-0.00019864,0.,0.00277096,-0.00890982,0.,-0.00116585,-0.34410261,0.
 ,-0.00124661,0.00119692,0.,-0.00090706,-0.00051944,0.,0.00000394,-0.00
 062945,0.,-0.00014909,0.00066044,0.,-0.00212870,-0.01057413,0.,0.00242
 025,0.00018471,0.,0.00001049,0.00001669,0.,-0.00000436,-0.00000381,0.,
 0.00000501,0.00000552,0.,-0.00001810,-0.00001332,0.,0.00016754,-0.0000
 4721,0.,0.00000140,-0.00005814,0.,0.00026475,-0.00050456,0.,-0.0000160
 9,0.00065117,0.,0.00084293,0.36186864,0.,0.,0.00036960,0.,0.,-0.000182
 90,0.,0.,0.00002416,0.,0.,-0.00004016,0.,0.,-0.00085056,0.,0.,0.006000
 46,0.,0.,0.00950387,0.,0.,-0.04156680,0.,0.,-0.00112511,0.,0.,0.000507
 11,0.,0.,0.00002502,0.,0.,-0.00012387,0.,0.,0.00508847,0.,0.,0.0041292
 1,0.,0.,-0.00001179,0.,0.,0.00002494,0.,0.,0.00002541,0.,0.,-0.0000033
 8,0.,0.,-0.00052662,0.,0.,0.00053336,0.,0.,-0.00156357,0.,0.,-0.003625
 43,0.,0.,0.02394751,-0.00933644,-0.00185019,0.00181072,-0.00191793,-0.
 00034560,-0.00115466,-0.00803056,-0.00694345,-0.00032819,0.01219830,0.
 00161915,0.00063231,0.01219831,-0.00161915,-0.00063230,-0.00803056,0.0
 0694345,0.00032819,-0.00191793,0.00034560,0.00115465,-0.00933644,0.001
 85019,-0.00181072,-0.04277328,0.,0.,0.00739348,0.,-0.00000001,0.009173
 37,0.02351183,-0.01952897,-0.00722441,-0.00119865,0.00221194,0.0091733
 7,-0.02351183,0.01952899,-0.00722441,0.00119865,-0.00221194,-0.0001625
 1,-0.00064181,0.00017501,0.00009262,0.00013700,0.00011024,-0.00018782,
 -0.00005882,0.00055030,-0.00021248,0.00022471,-0.00069594,0.00003922,0
 .,0.,-0.00021248,-0.00022471,0.00069594,-0.00018782,0.00005882,-0.0005
 5030,0.00009262,-0.00013700,-0.00011023,-0.00016251,0.00064181,-0.0001
 7501,0.04610334,0.00027483,0.00075606,-0.00096468,0.00015879,0.0004743
 7,0.00033971,0.00096708,0.00059987,-0.00014181,-0.00161067,-0.00103462
 ,-0.00040674,0.00161068,-0.00103462,-0.00040674,-0.00096709,0.00059988
 ,-0.00014181,-0.00015880,0.00047437,0.00033971,-0.00027483,0.00075606,
 -0.00096468,0.,-0.12480835,0.12785530,0.,0.00009896,-0.00001470,0.0038
 7045,-0.01570532,0.01253780,0.00321807,0.00002676,-0.00105615,-0.00387
 044,-0.01570532,0.01253780,-0.00321807,0.00002677,-0.00105615,-0.00005
 122,0.00007694,-0.00010034,-0.00003523,-0.00001097,0.00003692,0.000032
 30,-0.00001415,-0.00019953,0.00017168,-0.00008541,0.00049540,0.,-0.000
 02443,0.00015267,-0.00017168,-0.00008541,0.00049540,-0.00003230,-0.000
 01415,-0.00019953,0.00003523,-0.00001097,0.00003692,0.00005122,0.00007
 694,-0.00010034,0.,0.14665420,0.00010183,0.00042143,0.00100682,-0.0002
 3809,-0.00025075,0.00015827,-0.00037171,-0.00032223,-0.00017366,0.0005
 8280,-0.00001886,-0.00011625,-0.00058280,-0.00001886,-0.00011624,0.000
 37172,-0.00032224,-0.00017366,0.00023810,-0.00025074,0.00015827,-0.000
 10183,0.00042142,0.00100682,0.,0.12436759,-0.17839906,0.,-0.00004099,-
 0.00030428,-0.00142078,-0.00135778,0.00076552,-0.00001435,-0.00080896,
 -0.00181671,0.00142078,-0.00135777,0.00076552,0.00001434,-0.00080898,-
 0.00181671,-0.00045961,-0.00003015,-0.00027947,0.00000149,0.00002502,-
 0.00001525,-0.00000586,-0.00001836,-0.00008990,0.00003188,-0.00003333,
 0.00054202,0.,-0.00000229,-0.00002511,-0.00003188,-0.00003333,0.000542
 02,0.00000586,-0.00001836,-0.00008990,-0.00000149,0.00002502,-0.000015
 25,0.00045961,-0.00003015,-0.00027947,0.,-0.13430538,0.20464186,-0.009
 33644,-0.00185019,-0.00181072,-0.00191793,-0.00034560,0.00115466,-0.00
 803056,-0.00694345,0.00032819,0.01219830,0.00161915,-0.00063231,0.0121
 9831,-0.00161915,0.00063230,-0.00803056,0.00694345,-0.00032819,-0.0019
 1793,0.00034560,-0.00115465,-0.00933644,0.00185019,0.00181072,-0.04277
 328,0.,0.,0.00739348,0.,0.00000001,0.00917337,0.02351183,0.01952897,-0
 .00722441,-0.00119865,-0.00221194,0.00917337,-0.02351183,-0.01952899,-
 0.00722441,0.00119865,0.00221194,-0.00016251,-0.00064181,-0.00017501,0
 .00009262,0.00013700,-0.00011024,-0.00018782,-0.00005882,-0.00055030,-
 0.00021248,0.00022471,0.00069594,0.00003922,0.,0.,-0.00021248,-0.00022
 471,-0.00069594,-0.00018782,0.00005882,0.00055030,0.00009262,-0.000137
 00,0.00011023,-0.00016251,0.00064181,0.00017501,0.00045296,0.,0.,0.046
 10334,0.00027483,0.00075606,0.00096468,0.00015879,0.00047437,-0.000339
 71,0.00096708,0.00059987,0.00014181,-0.00161067,-0.00103462,0.00040674
 ,0.00161068,-0.00103462,0.00040674,-0.00096709,0.00059988,0.00014181,-
 0.00015880,0.00047437,-0.00033971,-0.00027483,0.00075606,0.00096468,0.
 ,-0.12480835,-0.12785530,0.,0.00009896,0.00001470,0.00387045,-0.015705
 32,-0.01253780,0.00321807,0.00002676,0.00105615,-0.00387044,-0.0157053
 2,-0.01253780,-0.00321807,0.00002677,0.00105615,-0.00005122,0.00007694
 ,0.00010034,-0.00003523,-0.00001097,-0.00003692,0.00003230,-0.00001415
 ,0.00019953,0.00017168,-0.00008541,-0.00049540,0.,-0.00002443,-0.00015
 267,-0.00017168,-0.00008541,-0.00049540,-0.00003230,-0.00001415,0.0001
 9953,0.00003523,-0.00001097,-0.00003692,0.00005122,0.00007694,0.000100
 34,0.,0.00791257,0.01476902,0.,0.14665420,-0.00010183,-0.00042143,0.00
 100682,0.00023809,0.00025075,0.00015827,0.00037171,0.00032223,-0.00017
 366,-0.00058280,0.00001886,-0.00011625,0.00058280,0.00001886,-0.000116
 24,-0.00037172,0.00032224,-0.00017366,-0.00023810,0.00025074,0.0001582
 7,0.00010183,-0.00042142,0.00100682,0.,-0.12436759,-0.17839906,0.,0.00
 004099,-0.00030428,0.00142078,0.00135778,0.00076552,0.00001435,0.00080
 896,-0.00181671,-0.00142078,0.00135777,0.00076552,-0.00001434,0.000808
 98,-0.00181671,0.00045961,0.00003015,-0.00027947,-0.00000149,-0.000025
 02,-0.00001525,0.00000586,0.00001836,-0.00008990,-0.00003188,0.0000333
 3,0.00054202,0.,0.00000229,-0.00002511,0.00003188,0.00003333,0.0005420
 2,-0.00000586,0.00001836,-0.00008990,0.00000149,-0.00002502,-0.0000152
 5,-0.00045961,0.00003015,-0.00027947,0.,-0.01476902,-0.02587619,0.,0.1
 3430538,0.20464186\\-0.00000444,-0.00002302,0.,-0.00001739,-0.00001389
 ,0.,-0.00001552,0.00001565,0.,-0.00000334,0.00002148,0.,0.00000334,0.0
 0002148,0.,0.00001552,0.00001565,0.,0.00001739,-0.00001389,0.,0.000004
 44,-0.00002302,0.,0.,-0.00000813,0.,0.,0.00002403,0.,0.00000899,0.0000
 0374,0.,-0.00000313,-0.00000593,0.,-0.00000899,0.00000374,0.,0.0000031
 3,-0.00000593,0.,-0.00000045,-0.00000612,0.,-0.00000703,-0.00000427,0.
 ,-0.00000681,0.00000439,0.,-0.00000015,0.00000423,0.,0.,0.00000554,0.,
 0.00000015,0.00000423,0.,0.00000681,0.00000439,0.,0.00000703,-0.000004
 27,0.,0.00000045,-0.00000612,0.,0.,-0.00000699,0.00000096,0.,-0.000006
 99,-0.00000096\\\@
 The archive entry for this job was punched.


 MOST BUREAUCRACIES FUNCTION LIKE A SEPTIC TANK.
 THE LARGE CHUNKS RISE TO THE TOP.
 Job cpu time:       1 days  0 hours 17 minutes 37.1 seconds.
 Elapsed time:       0 days  0 hours 31 minutes  9.6 seconds.
 File lengths (MBytes):  RWF=   2820 Int=      0 D2E=      0 Chk=     71 Scr=      1
 Normal termination of Gaussian 16 at Fri Aug 19 16:04:31 2022.
